
     Program PWSCF v.7.1 starts on 17Jun2023 at 14: 5: 9 

     This program is part of the open-source Quantum ESPRESSO suite
     for quantum simulation of materials; please cite
         "P. Giannozzi et al., J. Phys.:Condens. Matter 21 395502 (2009);
         "P. Giannozzi et al., J. Phys.:Condens. Matter 29 465901 (2017);
         "P. Giannozzi et al., J. Chem. Phys. 152 154105 (2020);
          URL http://www.quantum-espresso.org", 
     in publications or presentations arising from this work. More details at
     http://www.quantum-espresso.org/quote

     Parallel version (MPI), running on    16 processors

     MPI processes distributed on     1 nodes
     52194 MiB available memory on the printing compute node when the environment starts
 
     Waiting for input...
     Reading input from standard input

     Current dimensions of program PWSCF are:
     Max number of different atomic species (ntypx) = 10
     Max number of k-points (npk) =  40000
     Max angular momentum in pseudopotentials (lmaxx) =  4
     Message from routine volume:
     axis vectors are left-handed

     Atomic positions and unit cell read from directory:
     ./work/Al2O2.save/
     Atomic positions from file used, from input discarded
 
     Message from routine volume:
     axis vectors are left-handed
     file Al.pbe-n-kjpaw_psl.1.0.0.UPF: wavefunction(s)  3S 3P renormalized
     file O.pbe-n-kjpaw_psl.1.0.0.UPF: wavefunction(s)  2S 2P renormalized
     Message from routine setup:
     using ibrav=0 with symmetry is DISCOURAGED, use correct ibrav instead
 
     R & G space division:  proc/nbgrp/npool/nimage =      16
     Subspace diagonalization in iterative solution of the eigenvalue problem:
     a serial algorithm will be used

 
     Parallelization info
     --------------------
     sticks:   dense  smooth     PW     G-vecs:    dense   smooth      PW
     Min          39      39     11                 3791     3791     599
     Max          40      40     12                 3799     3799     614
     Sum         625     625    187                60707    60707    9781
 
     Using Slab Decomposition
 


     bravais-lattice index     =            0
     lattice parameter (alat)  =       6.1344  a.u.
     unit-cell volume          =     968.0252 (a.u.)^3
     number of atoms/cell      =            8
     number of atomic types    =            2
     number of electrons       =        36.00
     number of Kohn-Sham states=           70
     kinetic-energy cutoff     =      60.0000  Ry
     charge density cutoff     =     240.0000  Ry
     Exchange-correlation= SLA  PW   PBX  PBC
                           (   1   4   3   4   0   0   0)

     celldm(1)=   6.134387  celldm(2)=   0.000000  celldm(3)=   0.000000
     celldm(4)=   0.000000  celldm(5)=   0.000000  celldm(6)=   0.000000

     crystal axes: (cart. coord. in units of alat)
               a(1) = (   0.865734   0.500504   0.000000 )  
               a(2) = (   0.865734  -0.500504   0.000000 )  
               a(3) = (   0.000000   0.000000   4.838949 )  

     reciprocal axes: (cart. coord. in units 2 pi/alat)
               b(1) = (  0.577544  0.998993  0.000000 )  
               b(2) = (  0.577544 -0.998993  0.000000 )  
               b(3) = (  0.000000  0.000000  0.206656 )  


     PseudoPot. # 1 for Al read from file:
     /home/mainadmin/research/danu/pseudo/Al.pbe-n-kjpaw_psl.1.0.0.UPF
     MD5 check sum: 502b6b27b9c6270cab5dd1084b96fa6d
     Pseudo is Projector augmented-wave + core cor, Zval =  3.0
     Generated using &quot;atomic&quot; code by A. Dal Corso  v.6.3
     Shape of augmentation charge: PSQ
     Using radial grid of 1135 points,  6 beta functions with: 
                l(1) =   0
                l(2) =   0
                l(3) =   1
                l(4) =   1
                l(5) =   2
                l(6) =   2
     Q(r) pseudized with 0 coefficients 


     PseudoPot. # 2 for O  read from file:
     /home/mainadmin/research/danu/pseudo/O.pbe-n-kjpaw_psl.1.0.0.UPF
     MD5 check sum: e99d9cef9b487d1ca56f5b95ecd0fd7a
     Pseudo is Projector augmented-wave + core cor, Zval =  6.0
     Generated using &quot;atomic&quot; code by A. Dal Corso  v.6.3
     Shape of augmentation charge: PSQ
     Using radial grid of 1095 points,  4 beta functions with: 
                l(1) =   0
                l(2) =   0
                l(3) =   1
                l(4) =   1
     Q(r) pseudized with 0 coefficients 


     atomic species   valence    mass     pseudopotential
        Al             3.00    26.98100     Al( 1.00)
        O              6.00    15.99900     O ( 1.00)

      2 Sym. Ops. (no inversion) found



   Cartesian axes

     site n.     atom                  positions (alat units)
         1           O   tau(   1) = (   1.1543123   0.0000000   0.0000000  )
         2           Al  tau(   2) = (   0.5771561   0.0000000   0.1709302  )
         3           Al  tau(   3) = (   0.5771561   0.0000000   0.9743090  )
         4           O   tau(   4) = (   1.1543123   0.0000000   1.1454264  )
         5           O   tau(   5) = (   1.1543123   0.0000000   2.4193285  )
         6           Al  tau(   6) = (   0.5771561   0.0000000   2.5897303  )
         7           Al  tau(   7) = (   0.5771561   0.0000000   3.3940051  )
         8           O   tau(   8) = (   1.1543123   0.0000000   3.5650471  )

     number of k points=    91
                       cart. coord. in units 2pi/alat
        k(    1) = (   0.0000000   0.0000000   0.0000000), wk =   0.0219780
        k(    2) = (   0.0192515   0.0110848   0.0000000), wk =   0.0219780
        k(    3) = (   0.0385030   0.0221697   0.0000000), wk =   0.0219780
        k(    4) = (   0.0577544   0.0332545   0.0000000), wk =   0.0219780
        k(    5) = (   0.0770059   0.0443393   0.0000000), wk =   0.0219780
        k(    6) = (   0.0962574   0.0554241   0.0000000), wk =   0.0219780
        k(    7) = (   0.1155089   0.0665090   0.0000000), wk =   0.0219780
        k(    8) = (   0.1347604   0.0775938   0.0000000), wk =   0.0219780
        k(    9) = (   0.1540119   0.0886786   0.0000000), wk =   0.0219780
        k(   10) = (   0.1732633   0.0997634   0.0000000), wk =   0.0219780
        k(   11) = (   0.1925148   0.1108483   0.0000000), wk =   0.0219780
        k(   12) = (   0.2117663   0.1219331   0.0000000), wk =   0.0219780
        k(   13) = (   0.2310178   0.1330179   0.0000000), wk =   0.0219780
        k(   14) = (   0.2502693   0.1441027   0.0000000), wk =   0.0219780
        k(   15) = (   0.2695208   0.1551876   0.0000000), wk =   0.0219780
        k(   16) = (   0.2887722   0.1662724   0.0000000), wk =   0.0219780
        k(   17) = (   0.3080237   0.1773572   0.0000000), wk =   0.0219780
        k(   18) = (   0.3272752   0.1884420   0.0000000), wk =   0.0219780
        k(   19) = (   0.3465267   0.1995269   0.0000000), wk =   0.0219780
        k(   20) = (   0.3657782   0.2106117   0.0000000), wk =   0.0219780
        k(   21) = (   0.3850296   0.2216965   0.0000000), wk =   0.0219780
        k(   22) = (   0.4042811   0.2327813   0.0000000), wk =   0.0219780
        k(   23) = (   0.4235326   0.2438662   0.0000000), wk =   0.0219780
        k(   24) = (   0.4427841   0.2549510   0.0000000), wk =   0.0219780
        k(   25) = (   0.4620356   0.2660358   0.0000000), wk =   0.0219780
        k(   26) = (   0.4812871   0.2771206   0.0000000), wk =   0.0219780
        k(   27) = (   0.5005385   0.2882055   0.0000000), wk =   0.0219780
        k(   28) = (   0.5197900   0.2992903   0.0000000), wk =   0.0219780
        k(   29) = (   0.5390415   0.3103751   0.0000000), wk =   0.0219780
        k(   30) = (   0.5582930   0.3214599   0.0000000), wk =   0.0219780
        k(   31) = (   0.5775445   0.3325448   0.0000000), wk =   0.0219780
        k(   32) = (   0.5775445   0.3214599   0.0000000), wk =   0.0219780
        k(   33) = (   0.5775445   0.3103751   0.0000000), wk =   0.0219780
        k(   34) = (   0.5775445   0.2992903   0.0000000), wk =   0.0219780
        k(   35) = (   0.5775445   0.2882055   0.0000000), wk =   0.0219780
        k(   36) = (   0.5775445   0.2771206   0.0000000), wk =   0.0219780
        k(   37) = (   0.5775445   0.2660358   0.0000000), wk =   0.0219780
        k(   38) = (   0.5775445   0.2549510   0.0000000), wk =   0.0219780
        k(   39) = (   0.5775445   0.2438662   0.0000000), wk =   0.0219780
        k(   40) = (   0.5775445   0.2327813   0.0000000), wk =   0.0219780
        k(   41) = (   0.5775445   0.2216965   0.0000000), wk =   0.0219780
        k(   42) = (   0.5775445   0.2106117   0.0000000), wk =   0.0219780
        k(   43) = (   0.5775445   0.1995269   0.0000000), wk =   0.0219780
        k(   44) = (   0.5775445   0.1884420   0.0000000), wk =   0.0219780
        k(   45) = (   0.5775445   0.1773572   0.0000000), wk =   0.0219780
        k(   46) = (   0.5775445   0.1662724   0.0000000), wk =   0.0219780
        k(   47) = (   0.5775445   0.1551876   0.0000000), wk =   0.0219780
        k(   48) = (   0.5775445   0.1441027   0.0000000), wk =   0.0219780
        k(   49) = (   0.5775445   0.1330179   0.0000000), wk =   0.0219780
        k(   50) = (   0.5775445   0.1219331   0.0000000), wk =   0.0219780
        k(   51) = (   0.5775445   0.1108483   0.0000000), wk =   0.0219780
        k(   52) = (   0.5775445   0.0997634   0.0000000), wk =   0.0219780
        k(   53) = (   0.5775445   0.0886786   0.0000000), wk =   0.0219780
        k(   54) = (   0.5775445   0.0775938   0.0000000), wk =   0.0219780
        k(   55) = (   0.5775445   0.0665090   0.0000000), wk =   0.0219780
        k(   56) = (   0.5775445   0.0554241   0.0000000), wk =   0.0219780
        k(   57) = (   0.5775445   0.0443393   0.0000000), wk =   0.0219780
        k(   58) = (   0.5775445   0.0332545   0.0000000), wk =   0.0219780
        k(   59) = (   0.5775445   0.0221697   0.0000000), wk =   0.0219780
        k(   60) = (   0.5775445   0.0110848   0.0000000), wk =   0.0219780
        k(   61) = (   0.5775445   0.0000000   0.0000000), wk =   0.0219780
        k(   62) = (   0.5582930   0.0000000   0.0000000), wk =   0.0219780
        k(   63) = (   0.5390415   0.0000000   0.0000000), wk =   0.0219780
        k(   64) = (   0.5197900   0.0000000   0.0000000), wk =   0.0219780
        k(   65) = (   0.5005385   0.0000000   0.0000000), wk =   0.0219780
        k(   66) = (   0.4812871   0.0000000   0.0000000), wk =   0.0219780
        k(   67) = (   0.4620356   0.0000000   0.0000000), wk =   0.0219780
        k(   68) = (   0.4427841   0.0000000   0.0000000), wk =   0.0219780
        k(   69) = (   0.4235326   0.0000000   0.0000000), wk =   0.0219780
        k(   70) = (   0.4042811   0.0000000   0.0000000), wk =   0.0219780
        k(   71) = (   0.3850296   0.0000000   0.0000000), wk =   0.0219780
        k(   72) = (   0.3657782   0.0000000   0.0000000), wk =   0.0219780
        k(   73) = (   0.3465267   0.0000000   0.0000000), wk =   0.0219780
        k(   74) = (   0.3272752   0.0000000   0.0000000), wk =   0.0219780
        k(   75) = (   0.3080237   0.0000000   0.0000000), wk =   0.0219780
        k(   76) = (   0.2887722   0.0000000   0.0000000), wk =   0.0219780
        k(   77) = (   0.2695208   0.0000000   0.0000000), wk =   0.0219780
        k(   78) = (   0.2502693   0.0000000   0.0000000), wk =   0.0219780
        k(   79) = (   0.2310178   0.0000000   0.0000000), wk =   0.0219780
        k(   80) = (   0.2117663   0.0000000   0.0000000), wk =   0.0219780
        k(   81) = (   0.1925148   0.0000000   0.0000000), wk =   0.0219780
        k(   82) = (   0.1732633   0.0000000   0.0000000), wk =   0.0219780
        k(   83) = (   0.1540119   0.0000000   0.0000000), wk =   0.0219780
        k(   84) = (   0.1347604   0.0000000   0.0000000), wk =   0.0219780
        k(   85) = (   0.1155089   0.0000000   0.0000000), wk =   0.0219780
        k(   86) = (   0.0962574   0.0000000   0.0000000), wk =   0.0219780
        k(   87) = (   0.0770059   0.0000000   0.0000000), wk =   0.0219780
        k(   88) = (   0.0577544   0.0000000   0.0000000), wk =   0.0219780
        k(   89) = (   0.0385030   0.0000000   0.0000000), wk =   0.0219780
        k(   90) = (   0.0192515   0.0000000   0.0000000), wk =   0.0219780
        k(   91) = (   0.0000000   0.0000000   0.0000000), wk =   0.0219780

     Dense  grid:    60707 G-vectors     FFT dimensions: (  32,  32, 150)

     Estimated max dynamical RAM per process >      16.08 MB

     Estimated total dynamical RAM >     257.24 MB

     Check: negative core charge=   -0.000006

     The potential is recalculated from file :
     ./work/Al2O2.save/charge-density

     Starting wfcs are   32 randomized atomic wfcs +   38 random wfcs
     Checking if some PAW data can be deallocated... 

     Band Structure Calculation
     Davidson diagonalization with overlap
     c_bands:  1 eigenvalues not converged
     c_bands:  1 eigenvalues not converged
     c_bands:  1 eigenvalues not converged
     c_bands:  1 eigenvalues not converged
     c_bands:  1 eigenvalues not converged
     c_bands:  1 eigenvalues not converged
     c_bands:  1 eigenvalues not converged
     c_bands:  1 eigenvalues not converged
     c_bands:  1 eigenvalues not converged

     ethr =  2.78E-11,  avg # of iterations = 68.8

     total cpu time spent up to now is      233.6 secs

     End of band structure calculation

          k = 0.0000 0.0000 0.0000 (  7603 PWs)   bands (ev):

   -15.9260 -15.9184 -15.8510 -15.8430  -2.8504  -2.7926  -0.7961  -0.7924
    -0.7923  -0.7887  -0.7809  -0.7534  -0.7498  -0.7488  -0.7453  -0.5713
     1.4430   1.7889   3.9603   4.4319   6.2900   6.9127   9.0138   9.9927
    11.5505  11.7312  11.7489  11.7515  11.7691  13.2169  13.2703  13.2916
    13.3136  13.3348  14.3182  15.1472  16.1950  16.2161  16.2572  16.2784
    16.8338  18.4620  18.9445  19.1313  19.1554  19.2706  19.3109  19.3348
    19.3494  20.5709  20.7995  20.8191  21.0595  21.0799  22.5740  22.9666
    22.9915  23.1665  23.2532  23.6607  23.6840  24.4441  24.4705  24.7605
    24.7894  25.5794  26.5961  26.6220  26.6455  26.9358

          k = 0.0193 0.0111 0.0000 (  7611 PWs)   bands (ev):

   -15.9242 -15.9166 -15.8492 -15.8413  -2.8479  -2.7905  -0.8096  -0.8037
    -0.7972  -0.7934  -0.7837  -0.7647  -0.7613  -0.7543  -0.7499  -0.5670
     1.4565   1.7993   3.9796   4.4511   6.2958   6.9219   9.0160   9.9991
    11.5444  11.6940  11.7087  11.7395  11.7569  13.1420  13.2840  13.3046
    13.3316  13.3390  14.3465  15.1953  16.1538  16.1931  16.2001  16.2561
    16.9012  18.4673  18.9730  19.0615  19.1639  19.2869  19.3023  19.3454
    19.4713  20.6377  20.7687  20.7884  21.0397  21.0606  22.6101  22.9523
    23.0025  23.1316  23.2847  23.6629  23.6937  24.4106  24.4486  24.6926
    24.7720  25.6593  26.5743  26.6103  26.6733  26.9806

          k = 0.0385 0.0222 0.0000 (  7613 PWs)   bands (ev):

   -15.9186 -15.9110 -15.8440 -15.8360  -2.8407  -2.7846  -0.8556  -0.8435
    -0.8218  -0.8143  -0.8040  -0.8002  -0.7637  -0.7604  -0.7562  -0.5559
     1.4956   1.8294   4.0365   4.5078   6.3131   6.9492   9.0226  10.0178
    11.5261  11.5512  11.5617  11.7421  11.7593  13.0162  13.2458  13.3113
    13.3563  13.3977  14.4156  15.3254  16.0100  16.0514  16.1631  16.2292
    17.0472  18.4830  18.9345  19.0518  19.1938  19.2241  19.3921  19.4200
    19.7118  20.6803  20.7040  20.8160  20.9831  21.0069  22.6836  22.8757
    23.0578  23.0716  23.3776  23.6339  23.7574  24.3039  24.4055  24.4882
    24.7747  25.8491  26.5111  26.5501  26.7785  27.0887

          k = 0.0578 0.0333 0.0000 (  7619 PWs)   bands (ev):

   -15.9094 -15.9018 -15.8353 -15.8274  -2.8294  -2.7753  -0.9274  -0.9066
    -0.8970  -0.8915  -0.8152  -0.8113  -0.7713  -0.7667  -0.7515  -0.5406
     1.5563   1.8765   4.1283   4.5996   6.3414   6.9940   9.0334  10.0471
    11.3316  11.3503  11.4949  11.7468  11.7634  12.8628  13.1506  13.3538
    13.4014  13.4487  14.4862  15.4791  15.8368  15.9014  16.1167  16.1800
    17.2207  18.5085  18.8200  19.0904  19.1583  19.2940  19.5227  19.5330
    20.0272  20.5420  20.5938  20.8965  20.9345  21.0695  22.6345  22.7772
    23.0981  23.1513  23.5258  23.5894  23.8563  24.1291  24.2486  24.3709
    24.7755  26.0793  26.4132  26.4965  26.8957  27.2058

          k = 0.0770 0.0443 0.0000 (  7619 PWs)   bands (ev):

   -15.8966 -15.8891 -15.8233 -15.8154  -2.8149  -2.7639  -1.0181  -0.9997
    -0.9940  -0.9828  -0.8310  -0.8271  -0.7861  -0.7814  -0.7338  -0.5220
     1.6334   1.9369   4.2512   4.7229   6.3801   7.0553   9.0480  10.0826
    11.0625  11.1017  11.4500  11.7501  11.7655  12.6868  13.0300  13.4062
    13.4643  13.5002  14.5136  15.4225  15.7962  15.8565  16.0676  16.1039
    17.4098  18.5427  18.7338  19.0105  19.2431  19.3627  19.6571  19.6699
    20.3656  20.3994  20.5100  20.7897  20.8771  21.3762  22.4209  22.6796
    23.1741  23.2773  23.5396  23.7196  23.9176  23.9745  24.0585  24.3599
    24.7715  26.2899  26.2933  26.4780  26.9924  27.2969

          k = 0.0963 0.0554 0.0000 (  7627 PWs)   bands (ev):

   -15.8805 -15.8730 -15.8080 -15.8002  -2.7989  -2.7521  -1.1228  -1.1194
    -1.1124  -1.0734  -0.8517  -0.8476  -0.8053  -0.8005  -0.7110  -0.5000
     1.7220   2.0066   4.4006   4.8734   6.4283   7.1316   9.0659  10.1114
    10.7653  10.8453  11.3903  11.7481  11.7618  12.4936  12.8941  13.4571
    13.5440  13.5659  14.4705  15.1770  15.7549  15.9008  16.0062  16.1610
    17.6107  18.5840  18.6869  18.9730  19.2297  19.4300  19.7291  19.8200
    20.1691  20.5259  20.6741  20.8047  20.8972  21.7253  22.1574  22.5899
    23.0606  23.3572  23.4913  23.8150  23.9459  24.0017  24.0973  24.3809
    24.7647  26.1524  26.4408  26.5039  27.0669  27.3704

          k = 0.1155 0.0665 0.0000 (  7627 PWs)   bands (ev):

   -15.8611 -15.8538 -15.7898 -15.7821  -2.7839  -2.7421  -1.2583  -1.2495
    -1.2244  -1.1668  -0.8773  -0.8730  -0.8292  -0.8243  -0.6835  -0.4746
     1.8174   2.0819   4.5723   5.0468   6.4853   7.2211   9.0866  10.0909
    10.4537  10.6360  11.3151  11.7358  11.7480  12.2896  12.7523  13.4988
    13.6393  13.6548  14.3658  14.9027  15.7270  15.8155  15.9339  16.3916
    17.8154  18.6297  18.6828  18.9864  19.0754  19.4986  19.6789  19.9662
    19.9804  20.5600  20.6809  21.0526  21.1971  21.9193  22.1099  22.4990
    22.8367  23.1417  23.4475  23.9789  24.0572  24.1883  24.2102  24.4497
    24.7611  26.0128  26.5029  26.5713  27.1309  27.1610

          k = 0.1348 0.0776 0.0000 (  7643 PWs)   bands (ev):

   -15.8388 -15.8315 -15.7687 -15.7611  -2.7729  -2.7373  -1.4061  -1.3948
    -1.3266  -1.2563  -0.9082  -0.9037  -0.8578  -0.8528  -0.6516  -0.4459
     1.9161   2.1598   4.7619   5.2391   6.5498   7.3216   9.1093   9.9437
    10.1369  10.5594  11.2239  11.7068  11.7206  12.0806  12.6125  13.5344
    13.7488  13.7639  14.2292  14.6267  15.6184  15.7138  15.9661  16.6232
    18.0117  18.6749  18.7127  18.8147  19.0502  19.5202  19.5738  19.7657
    20.1546  20.4557  20.9366  21.3315  21.3607  21.9299  22.3664  22.5226
    22.6166  22.8388  23.4088  24.1389  24.1656  24.3001  24.4273  24.6017
    24.7737  25.8855  26.5059  26.6702  26.9104  27.0751

          k = 0.1540 0.0887 0.0000 (  7627 PWs)   bands (ev):

   -15.8138 -15.8066 -15.7451 -15.7376  -2.7700  -2.7411  -1.5608  -1.5471
    -1.4170  -1.3346  -0.9445  -0.9398  -0.8914  -0.8862  -0.6157  -0.4141
     2.0153   2.2380   4.9661   5.4465   6.6208   7.4301   9.1334   9.6917
     9.8216  10.5992  11.1175  11.6544  11.6773  11.8719  12.4805  13.5685
    13.8706  13.8873  14.0850  14.3554  15.4675  15.6200  16.0584  16.8329
    18.1895  18.4950  18.7081  18.7519  19.1525  19.3062  19.5703  19.6645
    20.3543  20.3688  21.2019  21.2243  21.6889  22.1629  22.2333  22.4872
    22.5895  22.9547  23.3734  24.1904  24.2898  24.3568  24.6380  24.8188
    24.8394  25.7895  26.4899  26.6300  26.7840  26.9641

          k = 0.1733 0.0998 0.0000 (  7629 PWs)   bands (ev):

   -15.7863 -15.7792 -15.7192 -15.7118  -2.7799  -2.7576  -1.7187  -1.7028
    -1.4884  -1.3952  -0.9866  -0.9816  -0.9301  -0.9247  -0.5763  -0.3794
     2.1131   2.3145   5.1817   5.6657   6.6972   7.5433   9.1579   9.4044
     9.5135  10.6883  10.9980  11.5761  11.6157  11.6683  12.3599  13.6035
    13.9445  14.0022  14.0204  14.0904  15.3189  15.5488  16.1713  17.0159
    18.1455  18.3473  18.6914  18.7641  19.1022  19.2712  19.3824  19.7813
    20.3056  20.5910  21.0078  21.4052  22.0528  22.0929  22.1373  22.4066
    22.8299  23.3385  23.3952  24.1930  24.3751  24.3860  24.7902  24.9005
    25.1075  25.7502  26.3303  26.4828  26.8886  26.8938

          k = 0.1925 0.1108 0.0000 (  7623 PWs)   bands (ev):

   -15.7567 -15.7498 -15.6914 -15.6841  -2.8061  -2.7893  -1.8765  -1.8588
    -1.5348  -1.4327  -1.0346  -1.0294  -0.9741  -0.9684  -0.5337  -0.3421
     2.2079   2.3884   5.4064   5.8941   6.7779   7.6558   9.1104   9.1819
     9.2182  10.7977  10.8685  11.4727  11.4737  11.5375  12.2521  13.6409
    13.8075  13.8317  14.1405  14.1583  15.1950  15.5100  16.2939  17.1732
    17.7827  18.4909  18.5416  18.7207  19.0052  19.2023  19.3835  19.9224
    20.2720  20.8393  20.8694  21.2999  21.8990  22.1764  22.4024  22.5217
    23.2602  23.3036  23.8292  24.1579  24.3592  24.4827  24.8638  25.0031
    25.3671  25.7857  26.0239  26.4965  26.8491  26.9929

          k = 0.2118 0.1219 0.0000 (  7623 PWs)   bands (ev):

   -15.7255 -15.7187 -15.6619 -15.6548  -2.8502  -2.8371  -2.0319  -2.0125
    -1.5529  -1.4447  -1.0888  -1.0832  -1.0236  -1.0175  -0.4886  -0.3028
     2.2987   2.4586   5.6381   6.1293   6.8617   7.7588   8.8203   8.9446
     9.2047  10.7333  10.9102  11.2914  11.3479  11.4526  12.1569  13.5776
    13.6686  13.6814  14.2819  14.2956  15.1115  15.5078  16.4224  17.3059
    17.4164  18.2810  18.6195  18.6281  19.0005  19.0304  19.4760  20.0498
    20.2720  20.7106  21.0723  21.1834  21.7236  22.1451  22.6916  22.9334
    23.2929  23.6819  24.1034  24.2284  24.3203  24.5949  24.8835  25.1094
    25.5962  25.7164  25.8897  26.5304  26.8386  27.0957

          k = 0.2310 0.1330 0.0000 (  7629 PWs)   bands (ev):

   -15.6929 -15.6862 -15.6312 -15.6242  -2.9102  -2.8992  -2.1823  -2.1615
    -1.5430  -1.4315  -1.1492  -1.1432  -1.0785  -1.0721  -0.4413  -0.2618
     2.3847   2.5248   5.8754   6.3697   6.9471   7.8335   8.5398   8.7104
     9.2253  10.5966  10.9924  11.1243  11.2080  11.3942  12.0734  13.3304
    13.5204  13.7252  14.4218  14.4260  15.0767  15.5408  16.5550  17.0536
    17.4098  17.9841  18.4863  18.7617  18.8660  19.0204  19.5465  20.0636
    20.3063  20.6808  20.8389  21.5166  21.6405  22.0298  23.0822  23.0895
    23.5280  24.0424  24.0607  24.2787  24.5090  24.7353  24.9429  25.2103
    25.4398  25.7766  26.0189  26.5739  26.8457  27.2300

          k = 0.2503 0.1441 0.0000 (  7627 PWs)   bands (ev):

   -15.6593 -15.6528 -15.5997 -15.5928  -2.9821  -2.9718  -2.3259  -2.3039
    -1.5082  -1.3958  -1.2160  -1.2096  -1.1390  -1.1321  -0.3925  -0.2196
     2.4654   2.5869   6.1171   6.6134   7.0313   7.8406   8.2735   8.5536
     9.2431  10.4623  10.9747  10.9815  11.0600  11.4271  12.0006  13.0912
    13.3623  13.7716  14.5412  14.5560  15.0905  15.6024  16.6907  16.7003
    17.4700  17.6776  18.3595  18.7084  18.8949  19.0458  19.5988  19.9097
    20.3719  20.6293  20.7854  21.6408  21.8464  21.8890  23.0327  23.4803
    23.9190  23.9859  24.2872  24.3633  24.5575  24.9220  25.0940  25.2642
    25.3028  25.8997  26.1683  26.6128  26.8571  27.4171

          k = 0.2695 0.1552 0.0000 (  7619 PWs)   bands (ev):

   -15.6253 -15.6190 -15.5677 -15.5609  -3.0607  -3.0501  -2.4608  -2.4380
    -1.4531  -1.3414  -1.2892  -1.2821  -1.2050  -1.1976  -0.3429  -0.1767
     2.5408   2.6448   6.3620   6.8593   7.1087   7.7417   8.0282   8.5108
     9.2574  10.3340  10.8447  10.8827  10.9115  11.5471  11.9376  12.8643
    13.1980  13.8189  14.6339  14.6774  15.1463  15.6816  16.3622  16.8283
    17.3712  17.4619  18.2861  18.5575  19.0255  19.0754  19.6396  19.6726
    20.4545  20.4624  20.9455  21.6953  21.7325  22.1448  22.9420  23.7839
    24.0157  24.0774  24.4792  24.5614  24.5657  24.9929  25.1585  25.3867
    25.4375  25.9867  26.3418  26.6397  26.8595  27.6476

          k = 0.2888 0.1663 0.0000 (  7617 PWs)   bands (ev):

   -15.5912 -15.5850 -15.5356 -15.5290  -3.1410  -3.1295  -2.5858  -2.5623
    -1.3826  -1.3683  -1.3612  -1.2764  -1.2723  -1.2684  -0.2930  -0.1337
     2.6107   2.6988   6.6096   7.1062   7.1644   7.5645   7.8196   8.5519
     9.2680  10.2142  10.7354  10.7499  10.7683  11.6993  11.8838  12.6572
    13.0336  13.8631  14.6953  14.7798  15.2348  15.7636  16.0461  16.9663
    17.0709  17.3814  18.2861  18.4144  19.1130  19.1485  19.4157  19.6776
    20.3186  20.5685  21.1115  21.5684  21.7757  22.3770  22.8452  23.7744
    24.0792  24.3366  24.3662  24.6759  24.9072  25.0037  25.4038  25.4627
    25.6199  26.0920  26.5445  26.6614  26.8413  27.8795

          k = 0.3080 0.1774 0.0000 (  7603 PWs)   bands (ev):

   -15.5575 -15.5515 -15.5039 -15.4975  -3.2190  -3.2063  -2.6995  -2.6753
    -1.4540  -1.4459  -1.3529  -1.3444  -1.3001  -1.1925  -0.2434  -0.0912
     2.6753   2.7494   6.8589   7.1600   7.3533   7.3581   7.6862   8.6246
     9.2752  10.1051  10.6091  10.6331  10.6479  11.8389  11.8454  12.4899
    12.8752  13.8963  14.7198  14.8562  15.3465  15.7595  15.8284  16.7809
    17.1031  17.2660  18.2817  18.3291  19.1628  19.1755  19.2540  19.7253
    20.2199  20.6796  21.2643  21.4053  21.8642  22.5060  22.7586  23.6894
    24.0705  24.2801  24.6972  24.7150  24.8752  25.4510  25.5332  25.6124
    25.7578  26.2705  26.6948  26.7636  26.7972  27.9046

          k = 0.3273 0.1884 0.0000 (  7585 PWs)   bands (ev):

   -15.5246 -15.5187 -15.4730 -15.4667  -3.2913  -3.2772  -2.8008  -2.7762
    -1.5452  -1.5365  -1.4345  -1.4252  -1.2101  -1.1051  -0.1949  -0.0496
     2.7352   2.7971   7.0586   7.1094   7.1470   7.5994   7.6651   8.7011
     9.2797  10.0080  10.4667  10.5134  10.5822  11.8028  11.9206  12.4231
    12.7283  13.9037  14.7105  14.8995  15.4730  15.5097  15.8530  16.5051
    17.1606  17.2365  18.1625  18.3543  18.9990  19.2279  19.3297  19.7975
    20.1509  20.7842  21.2535  21.3883  21.9568  22.5124  22.6972  23.5838
    24.0688  24.2565  24.7034  24.8724  25.0264  25.6090  25.7850  25.8572
    25.8807  26.5230  26.7404  26.7573  26.9789  27.9068

          k = 0.3465 0.1995 0.0000 (  7583 PWs)   bands (ev):

   -15.4929 -15.4871 -15.4432 -15.4370  -3.3552  -3.3399  -2.8888  -2.8640
    -1.6416  -1.6322  -1.5206  -1.5106  -1.1155  -1.0132  -0.1481  -0.0095
     2.7909   2.8427   6.8957   6.9411   7.3602   7.7203   7.8437   8.7675
     9.2826   9.9241  10.3258  10.4144  10.5379  11.7755  11.8636  12.5173
    12.5974  13.8629  14.6859  14.9036  15.2977  15.6068  15.8192  16.2473
    17.0909  17.3633  18.0594  18.2905  18.9513  19.3100  19.3714  19.9011
    20.0977  20.8723  21.1247  21.4654  22.0613  22.4135  22.6728  23.4646
    24.0777  24.2882  24.6705  24.8794  25.2824  25.7274  25.9477  26.0138
    26.1333  26.7452  26.8051  26.8573  27.1758  27.9350

          k = 0.3658 0.2106 0.0000 (  7587 PWs)   bands (ev):

   -15.4628 -15.4572 -15.4149 -15.4089  -3.4089  -3.3925  -2.9629  -2.9379
    -1.7428  -1.7327  -1.6107  -1.6001  -1.0190  -0.9196  -0.1035   0.0286
     2.8432   2.8869   6.7164   6.7447   7.6104   7.8064   8.0849   8.8160
     9.2855   9.8539  10.1890  10.3388  10.5142  11.7428  11.7571  12.4859
    12.7047  13.7562  14.6676  14.8644  15.1203  15.7262  15.7406  16.0103
    17.0519  17.4806  17.9736  18.1465  19.0252  19.3887  19.4081  20.0299
    20.0428  20.9393  21.0297  21.4846  22.1854  22.2486  22.6900  23.3394
    24.0998  24.3465  24.6445  24.8867  25.4254  25.9348  26.1144  26.1554
    26.1636  26.9175  26.9942  27.0703  27.3474  27.9973

          k = 0.3850 0.2217 0.0000 (  7584 PWs)   bands (ev):

   -15.4346 -15.4292 -15.3885 -15.3825  -3.4509  -3.4335  -3.0223  -2.9972
    -1.8480  -1.8372  -1.7045  -1.6930  -0.9232  -0.8267  -0.0618   0.0643
     2.8932   2.9305   6.5392   6.5603   7.8585   7.9041   8.3218   8.8420
     9.2904   9.7976  10.0580  10.2878  10.5096  11.6156  11.7474  12.3966
    12.9283  13.5888  14.6402  14.7823  14.9913  15.5905  15.7945  15.8677
    17.0155  17.5853  17.9039  17.9897  19.1593  19.3968  19.5182  19.9722
    20.1740  20.9716  20.9889  21.4524  22.0516  22.3260  22.7426  23.2192
    24.1382  24.4048  24.6443  24.8984  25.4970  26.0262  26.2004  26.2885
    26.3186  27.1254  27.1597  27.2733  27.4918  28.1164

          k = 0.4043 0.2328 0.0000 (  7594 PWs)   bands (ev):

   -15.4087 -15.4034 -15.3642 -15.3584  -3.4801  -3.4619  -3.0668  -3.0417
    -1.9566  -1.9451  -1.8012  -1.7889  -0.8308  -0.7370  -0.0234   0.0971
     2.9415   2.9742   6.3712   6.3892   8.0045   8.1032   8.5526   8.8446
     9.2992   9.7553   9.9340  10.2599  10.5227  11.4999  11.7460  12.3314
    13.1708  13.3828  14.5395  14.6637  14.9583  15.4322  15.5965  15.9809
    16.9510  17.6750  17.8482  17.8554  19.3213  19.4081  19.6340  19.8825
    20.3259  20.9402  21.0334  21.3869  21.8449  22.4741  22.8146  23.1176
    24.1946  24.4416  24.6782  24.9273  25.5513  25.8551  26.4585  26.4707
    26.4835  27.2406  27.3408  27.3722  27.6126  28.3127

          k = 0.4235 0.2439 0.0000 (  7574 PWs)   bands (ev):

   -15.3854 -15.3802 -15.3423 -15.3365  -3.4959  -3.4771  -3.0960  -3.0710
    -2.0676  -2.0553  -1.9002  -1.8870  -0.7438  -0.6526   0.0113   0.1268
     2.9891   3.0185   6.2161   6.2327   8.1027   8.3414   8.7752   8.8261
     9.3135   9.7266   9.8185  10.2509  10.5523  11.4016  11.7522  12.2908
    13.1595  13.4258  14.3645  14.5198  15.0076  15.2671  15.4102  16.0727
    16.8458  17.7440  17.7513  17.8034  19.4313  19.4989  19.7464  19.7806
    20.4801  20.9142  21.0889  21.3089  21.6434  22.6216  22.8866  23.0485
    24.2634  24.4443  24.7461  24.9810  25.6119  25.6861  26.5621  26.6625
    26.7696  27.2553  27.3601  27.5232  27.7214  28.4555

          k = 0.4428 0.2550 0.0000 (  7566 PWs)   bands (ev):

   -15.3647 -15.3596 -15.3229 -15.3172  -3.4979  -3.4786  -3.1100  -3.0851
    -2.1800  -2.1670  -2.0005  -1.9866  -0.6643  -0.5756   0.0420   0.1529
     3.0361   3.0634   6.0760   6.0922   8.1938   8.5692   8.7912   8.9864
     9.3354   9.7106   9.7143  10.2550  10.5967  11.3229  11.7647  12.2741
    12.9335  13.6888  14.1563  14.3642  15.0900  15.1071  15.2299  16.1361
    16.7084  17.6402  17.7667  17.8139  19.4715  19.6769  19.6850  19.8456
    20.6306  20.8734  21.1704  21.2367  21.4592  22.7627  22.9428  23.0207
    24.3232  24.4141  24.8426  25.0503  25.5568  25.6903  26.6127  26.8600
    27.0584  27.2090  27.2773  27.6910  27.8377  28.3287

          k = 0.4620 0.2660 0.0000 (  7562 PWs)   bands (ev):

   -15.3470 -15.3420 -15.3062 -15.3007  -3.4862  -3.4666  -3.1090  -3.0843
    -2.2925  -2.2789  -2.1014  -2.0866  -0.5941  -0.5076   0.0684   0.1754
     3.0825   3.1083   5.9529   5.9690   8.2731   8.7452   8.7810   9.1815
     9.3671   9.6208   9.7107  10.2667  10.6546  11.2645  11.7814  12.2790
    12.7149  13.9348  13.9538  14.2093  14.9631  15.0529  15.1827  16.1660
    16.5549  17.5189  17.7361  17.8731  19.5266  19.5806  19.8752  19.9245
    20.7671  20.8078  21.1826  21.2875  21.3074  22.8921  22.9743  23.0333
    24.3340  24.3573  24.9603  25.1156  25.5111  25.7931  26.6110  27.0294
    27.1383  27.1958  27.3491  27.8271  27.9803  28.0857

          k = 0.4813 0.2771 0.0000 (  7564 PWs)   bands (ev):

   -15.3322 -15.3273 -15.2923 -15.2868  -3.4614  -3.4416  -3.0937  -3.0692
    -2.4037  -2.3895  -2.2016  -2.1860  -0.5344  -0.4498   0.0903   0.1942
     3.1272   3.1521   5.8484   5.8648   8.3360   8.6936   8.9677   9.3536
     9.4115   9.5441   9.7253  10.2815  10.7239  11.2255  11.7999  12.3015
    12.5114  13.7113  14.0658  14.2044  14.8553  14.8803  15.2740  16.1617
    16.3987  17.3687  17.7105  17.9342  19.4985  19.5897  19.9813  20.0653
    20.7191  20.8668  21.1513  21.2147  21.4413  22.9784  23.0047  23.0763
    24.2689  24.2780  25.0921  25.1577  25.5703  25.9247  26.5805  26.9896
    27.0706  27.2860  27.6376  27.8107  27.9162  28.1571

          k = 0.5005 0.2882 0.0000 (  7566 PWs)   bands (ev):

   -15.3204 -15.3155 -15.2812 -15.2758  -3.4248  -3.4049  -3.0650  -3.0408
    -2.5116  -2.4969  -2.2997  -2.2834  -0.4862  -0.4030   0.1079   0.2092
     3.1687   3.1928   5.7641   5.7810   8.3793   8.6412   9.1184   9.4717
     9.4852   9.4922   9.7594  10.2964  10.8015  11.2039  11.8171  12.3295
    12.3367  13.4956  13.9423  14.3817  14.7168  14.8442  15.3562  16.1287
    16.2493  17.1881  17.6897  17.9997  19.4353  19.6492  20.0188  20.2516
    20.6172  20.9005  21.1387  21.2127  21.6254  22.9543  23.0945  23.1344
    24.1472  24.1785  25.1656  25.2332  25.7021  26.0861  26.5540  26.8626
    27.0320  27.2345  27.7730  27.8697  27.9940  28.3651

          k = 0.5198 0.2993 0.0000 (  7562 PWs)   bands (ev):

   -15.3114 -15.3066 -15.2729 -15.2674  -3.3789  -3.3590  -3.0251  -3.0012
    -2.6131  -2.5979  -2.3933  -2.3764  -0.4496  -0.3676   0.1211   0.2205
     3.2045   3.2280   5.7011   5.7184   8.4022   8.5924   9.2270   9.4452
     9.5439   9.5868   9.8144  10.3096  10.8822  11.1966  11.8305  12.1792
    12.3753  13.2992  13.8454  14.4109  14.5705  15.0029  15.4237  16.0782
    16.1147  16.9835  17.6740  18.0669  19.3931  19.6938  20.0421  20.4308
    20.5146  20.9066  21.1329  21.2608  21.8289  22.9010  23.1564  23.1931
    24.0091  24.0651  25.1437  25.3822  25.8459  26.2734  26.5518  26.6763
    27.0448  27.0522  27.8517  27.9901  28.2424  28.4274

          k = 0.5390 0.3104 0.0000 (  7560 PWs)   bands (ev):

   -15.3053 -15.3005 -15.2671 -15.2617  -3.3290  -3.3090  -2.9784  -2.9546
    -2.7027  -2.6871  -2.4781  -2.4607  -0.4244  -0.3433   0.1301   0.2283
     3.2323   3.2553   5.6594   5.6771   8.4081   8.5515   9.2994   9.4220
     9.6103   9.6443   9.8747  10.3200  10.9575  11.1987  11.8389  12.0654
    12.4120  13.1367  13.7783  14.3730  14.4518  15.2397  15.4724  16.0082
    16.0247  16.7671  17.6636  18.1283  19.3711  19.7182  20.0556  20.4243
    20.6004  20.9419  21.1157  21.2897  22.0371  22.8174  23.1890  23.2415
    23.8881  23.9537  25.1091  25.5412  25.9505  26.4169  26.4741  26.5729
    26.9500  27.1587  27.7401  28.1856  28.2664  28.5076

          k = 0.5583 0.3215 0.0000 (  7564 PWs)   bands (ev):

   -15.3018 -15.2971 -15.2638 -15.2584  -3.2855  -3.2656  -2.9345  -2.9108
    -2.7699  -2.7540  -2.5445  -2.5269  -0.4101  -0.3294   0.1353   0.2327
     3.2498   3.2724   5.6374   5.6553   8.4044   8.5233   9.3452   9.4115
     9.6512   9.6789   9.9160  10.3268  11.0144  11.2047  11.8427  11.9949
    12.4386  13.0263  13.7404  14.3377  14.3727  15.4419  15.5008  15.9633
    15.9829  16.5622  17.6581  18.1733  19.3649  19.7270  20.0624  20.3598
    20.7561  21.0191  21.0674  21.2640  22.2256  22.7121  23.1986  23.2728
    23.8071  23.8702  25.0802  25.7126  25.9990  26.1572  26.6017  26.6555
    26.9235  27.3508  27.6064  27.9252  28.5571  28.7423

          k = 0.5775 0.3325 0.0000 (  7570 PWs)   bands (ev):

   -15.3008 -15.2960 -15.2628 -15.2574  -3.2666  -3.2467  -2.9140  -2.8903
    -2.7967  -2.7807  -2.5724  -2.5548  -0.4057  -0.3250   0.1369   0.2341
     3.2556   3.2782   5.6315   5.6494   8.4009   8.5126   9.3638   9.4088
     9.6620   9.6936   9.9283  10.3293  11.0367  11.2083  11.8436  11.9711
    12.4488  12.9859  13.7282  14.3243  14.3442  15.5099  15.5111  15.9662
    15.9920  16.4476  17.6564  18.1907  19.3657  19.7289  20.0646  20.3349
    20.8614  21.0024  21.1053  21.1973  22.3237  22.6436  23.1985  23.2835
    23.7786  23.8383  25.0688  25.8550  25.9815  26.0088  26.6166  26.7406
    26.9226  27.5371  27.5394  27.7193  28.7726  28.9061

          k = 0.5775 0.3215 0.0000 (  7564 PWs)   bands (ev):

   -15.3010 -15.2962 -15.2630 -15.2576  -3.2721  -3.2521  -2.9201  -2.8964
    -2.7892  -2.7733  -2.5645  -2.5468  -0.4067  -0.3260   0.1365   0.2338
     3.2543   3.2769   5.6323   5.6502   8.4024   8.5157   9.3566   9.4095
     9.6616   9.6870   9.9274  10.3286  11.0305  11.2067  11.8436  11.9769
    12.4457  12.9971  13.7313  14.3280  14.3519  15.5007  15.5076  15.9643
    15.9713  16.4903  17.6570  18.1856  19.3643  19.7280  20.0639  20.3423
    20.8121  21.0398  21.0556  21.2426  22.2937  22.6660  23.1992  23.2810
    23.7858  23.8473  25.0722  25.8018  26.0082  26.0438  26.6110  26.7157
    26.9200  27.4594  27.5572  27.8022  28.6944  28.8260

          k = 0.5775 0.3104 0.0000 (  7564 PWs)   bands (ev):

   -15.3017 -15.2969 -15.2637 -15.2583  -3.2873  -3.2673  -2.9367  -2.9131
    -2.7683  -2.7524  -2.5425  -2.5249  -0.4096  -0.3289   0.1355   0.2329
     3.2501   3.2728   5.6346   5.6526   8.4079   8.5252   9.3362   9.4106
     9.6612   9.6689   9.9255  10.3264  11.0120  11.2026  11.8429  11.9942
    12.4374  13.0279  13.7407  14.3377  14.3734  15.4776  15.5020  15.8997
    15.9859  16.5926  17.6580  18.1701  19.3608  19.7248  20.0624  20.3637
    20.7212  20.9750  21.0991  21.3140  22.2250  22.7114  23.2020  23.2725
    23.8067  23.8702  25.0821  25.7271  26.0064  26.1417  26.5928  26.6508
    26.9100  27.3307  27.6064  27.9393  28.5785  28.7015

          k = 0.5775 0.2993 0.0000 (  7560 PWs)   bands (ev):

   -15.3029 -15.2981 -15.2648 -15.2594  -3.3106  -3.2906  -2.9612  -2.9375
    -2.7356  -2.7199  -2.5093  -2.4918  -0.4144  -0.3335   0.1337   0.2314
     3.2432   3.2661   5.6376   5.6558   8.4187   8.5419   9.3013   9.4118
     9.6360   9.6641   9.9253  10.3226  10.9819  11.1954  11.8414  12.0222
    12.4241  13.0773  13.7567  14.3524  14.4079  15.4496  15.4937  15.8180
    16.0105  16.7283  17.6591  18.1438  19.3543  19.7166  20.0601  20.3997
    20.6076  20.8874  21.1611  21.3938  22.1367  22.7610  23.2072  23.2581
    23.8400  23.9050  25.0992  25.6590  26.0053  26.2429  26.5585  26.5596
    26.8900  27.1966  27.6667  28.0857  28.4754  28.5531

          k = 0.5775 0.2882 0.0000 (  7562 PWs)   bands (ev):

   -15.3045 -15.2997 -15.2663 -15.2609  -3.3397  -3.3196  -2.9908  -2.9671
    -2.6936  -2.6780  -2.4677  -2.4503  -0.4207  -0.3397   0.1314   0.2293
     3.2338   3.2569   5.6400   5.6587   8.4358   8.5664   9.2521   9.4132
     9.5893   9.6700   9.9280  10.3172  10.9417  11.1848  11.8388  12.0596
    12.4061  13.1434  13.7801  14.3703  14.4541  15.4213  15.4836  15.7324
    16.0452  16.8816  17.6603  18.1060  19.3445  19.6997  20.0572  20.4502
    20.4770  20.8022  21.2223  21.4789  22.0380  22.8065  23.2144  23.2374
    23.8837  23.9494  25.1237  25.6003  26.0061  26.3343  26.4504  26.5092
    26.8640  27.0641  27.7143  28.2332  28.3980  28.3997

          k = 0.5775 0.2771 0.0000 (  7560 PWs)   bands (ev):

   -15.3065 -15.3017 -15.2682 -15.2628  -3.3726  -3.3525  -3.0233  -2.9995
    -2.6444  -2.6290  -2.4201  -2.4029  -0.4285  -0.3473   0.1284   0.2268
     3.2221   3.2455   5.6411   5.6605   8.4602   8.5993   9.1904   9.4145
     9.5292   9.6792   9.9336  10.3101  10.8934  11.1708  11.8349  12.1048
    12.3838  13.2243  13.8114  14.3887  14.5108  15.3955  15.4724  15.6497
    16.0898  17.0445  17.6616  18.0566  19.3314  19.6695  20.0536  20.3329
    20.5144  20.7277  21.2813  21.5683  21.9329  22.8453  23.2106  23.2225
    23.9349  24.0005  25.1558  25.5509  26.0090  26.3336  26.3933  26.4413
    26.8520  26.9370  27.7131  28.2728  28.3539  28.3772

          k = 0.5775 0.2660 0.0000 (  7560 PWs)   bands (ev):

   -15.3088 -15.3040 -15.2704 -15.2649  -3.4077  -3.3875  -3.0574  -3.0334
    -2.5896  -2.5746  -2.3680  -2.3511  -0.4375  -0.3562   0.1250   0.2239
     3.2084   3.2322   5.6397   5.6604   8.4928   8.6412   9.1182   9.4157
     9.4578   9.6908   9.9413  10.3011  10.8391  11.1533  11.8295  12.1564
    12.3579  13.3177  13.8512  14.4042  14.5766  15.3743  15.4609  15.5752
    16.1438  17.2129  17.6629  17.9951  19.3153  19.6223  20.0494  20.1785
    20.5914  20.6707  21.3374  21.6614  21.8235  22.8774  23.1774  23.2304
    23.9902  24.0556  25.1952  25.5092  26.0129  26.2131  26.3568  26.3892
    26.8191  26.8865  27.6222  28.2166  28.3401  28.5122

          k = 0.5775 0.2550 0.0000 (  7560 PWs)   bands (ev):

   -15.3114 -15.3066 -15.2729 -15.2674  -3.4441  -3.4238  -3.0921  -3.0679
    -2.5306  -2.5159  -2.3126  -2.2961  -0.4476  -0.3661   0.1212   0.2206
     3.1929   3.2172   5.6352   5.6575   8.5340   8.6923   9.0376   9.3768
     9.4172   9.7040   9.9503  10.2903  10.7808  11.1325  11.8225  12.2127
    12.3291  13.4217  13.8995  14.4126  14.6499  15.3568  15.4498  15.5152
    16.2064  17.3838  17.6642  17.9213  19.2967  19.5572  20.0173  20.0448
    20.6351  20.6798  21.3903  21.7109  21.7579  22.9035  23.1379  23.2366
    24.0462  24.1123  25.2407  25.4724  26.0142  26.0919  26.2587  26.3226
    26.7161  26.9738  27.4511  28.2226  28.3525  28.6303

          k = 0.5775 0.2439 0.0000 (  7568 PWs)   bands (ev):

   -15.3143 -15.3095 -15.2756 -15.2701  -3.4808  -3.4604  -3.1268  -3.1024
    -2.4684  -2.4541  -2.2546  -2.2385  -0.4587  -0.3770   0.1170   0.2169
     3.1760   3.2008   5.6268   5.6515   8.5841   8.7530   8.9503   9.2884
     9.4188   9.7181   9.9598  10.2777  10.7201  11.1086  11.8140  12.2724
    12.2982  13.5345  13.9562  14.4096  14.7296  15.3357  15.4399  15.4816
    16.2767  17.5546  17.6657  17.8351  19.2758  19.4768  19.8533  20.0395
    20.6205  20.7783  21.4394  21.5959  21.8577  22.9248  23.0921  23.2398
    24.0997  24.1684  25.2890  25.4356  25.9722  26.0063  26.1529  26.2243
    26.6365  27.0930  27.2397  28.2538  28.3832  28.7177

          k = 0.5775 0.2328 0.0000 (  7556 PWs)   bands (ev):

   -15.3174 -15.3126 -15.2785 -15.2730  -3.5174  -3.4969  -3.1610  -3.1364
    -2.4036  -2.3896  -2.1947  -2.1791  -0.4705  -0.3886   0.1126   0.2130
     3.1580   3.1834   5.6142   5.6419   8.6430   8.8232   8.8579   9.1942
     9.4211   9.7326   9.9695  10.2632  10.6585  11.0820  11.8041  12.2655
    12.3345  13.6544  14.0211  14.3923  14.8143  15.3024  15.4319  15.4859
    16.3531  17.6675  17.7219  17.7370  19.2531  19.3863  19.6913  20.0339
    20.6238  20.8853  21.4791  21.4844  21.9606  22.9425  23.0400  23.2386
    24.1480  24.2221  25.3325  25.3909  25.8552  25.9804  26.0496  26.1227
    26.5903  27.0122  27.2282  28.2897  28.4204  28.7540

          k = 0.5775 0.2217 0.0000 (  7564 PWs)   bands (ev):

   -15.3207 -15.3158 -15.2816 -15.2761  -3.5534  -3.5328  -3.1945  -3.1698
    -2.3368  -2.3234  -2.1335  -2.1183  -0.4830  -0.4009   0.1078   0.2089
     3.1391   3.1651   5.5970   5.6284   8.7101   8.7619   8.9029   9.0956
     9.4247   9.7471   9.9790  10.2469  10.5971  11.0530  11.7932  12.2324
    12.3973  13.7800  14.0936  14.3597  14.9031  15.2610  15.4265  15.5246
    16.4334  17.6278  17.6698  17.8811  19.2288  19.2915  19.5376  20.0279
    20.6404  20.9994  21.3610  21.5247  22.0666  22.9575  22.9820  23.2322
    24.1892  24.2721  25.3279  25.3560  25.7418  25.9307  25.9677  26.0393
    26.5835  26.7798  27.3717  28.3227  28.4430  28.7246

          k = 0.5775 0.2106 0.0000 (  7566 PWs)   bands (ev):

   -15.3241 -15.3192 -15.2848 -15.2793  -3.5886  -3.5679  -3.2271  -3.2021
    -2.2688  -2.2557  -2.0714  -2.0567  -0.4959  -0.4136   0.1028   0.2046
     3.1195   3.1462   5.5753   5.6111   8.6632   8.7846   8.9918   8.9941
     9.4306   9.7614   9.9879  10.2290  10.5368  11.0222  11.7814  12.1991
    12.4602  13.9101  14.1730  14.3126  14.9947  15.2182  15.4241  15.5891
    16.5139  17.5112  17.6728  18.0235  19.1971  19.2034  19.4022  20.0216
    20.6663  21.1189  21.2417  21.5598  22.1756  22.9185  22.9706  23.2195
    24.2219  24.3169  25.2402  25.3350  25.6321  25.8601  25.9330  25.9881
    26.5492  26.6126  27.5188  28.3506  28.4092  28.6393

          k = 0.5775 0.1995 0.0000 (  7570 PWs)   bands (ev):

   -15.3276 -15.3227 -15.2881 -15.2826  -3.6227  -3.6019  -3.2586  -3.2334
    -2.1998  -2.1873  -2.0089  -1.9947  -0.5092  -0.4268   0.0978   0.2002
     3.0996   3.1269   5.5493   5.5901   8.5632   8.8642   8.8908   9.0897
     9.4403   9.7752   9.9962  10.2097  10.4782  10.9900  11.7691  12.1662
    12.5221  14.0434  14.2532  14.2588  15.0883  15.1767  15.4253  15.6736
    16.5876  17.3939  17.6767  18.1351  19.1075  19.1762  19.3007  20.0150
    20.6979  21.1218  21.2423  21.5892  22.2874  22.8502  22.9823  23.2000
    24.2457  24.3550  25.1283  25.2612  25.5256  25.7764  25.9578  25.9725
    26.3251  26.6684  27.6636  28.2823  28.3731  28.5233

          k = 0.5775 0.1884 0.0000 (  7572 PWs)   bands (ev):

   -15.3312 -15.3263 -15.2915 -15.2860  -3.6556  -3.6346  -3.2888  -3.2634
    -2.1305  -2.1184  -1.9463  -1.9328  -0.5227  -0.4402   0.0927   0.1956
     3.0795   3.1076   5.5194   5.5656   8.4628   8.7867   8.9462   9.1959
     9.4567   9.7882  10.0038  10.1890  10.4221  10.9569  11.7566  12.1341
    12.5822  14.1787  14.1841  14.3499  15.1369  15.1828  15.4304  15.7742
    16.6396  17.2912  17.6817  18.1958  19.0241  19.1479  19.2543  20.0083
    20.7327  21.0015  21.3674  21.6121  22.4017  22.7783  22.9932  23.1735
    24.2604  24.3838  25.0007  25.1522  25.4210  25.6867  25.9863  26.0282
    26.1121  26.7407  27.7838  28.1061  28.3906  28.3978

          k = 0.5775 0.1774 0.0000 (  7576 PWs)   bands (ev):

   -15.3348 -15.3298 -15.2949 -15.2894  -3.6871  -3.6660  -3.3176  -3.2921
    -2.0613  -2.0497  -1.8842  -1.8712  -0.5363  -0.4537   0.0875   0.1911
     3.0595   3.0883   5.4860   5.5379   8.3627   8.6831   9.0255   9.3098
     9.4841   9.8003  10.0105  10.1674  10.3688  10.9234  11.7442  12.1031
    12.6399  14.1064  14.3157  14.4457  15.0987  15.2774  15.4398  15.8877
    16.6428  17.2312  17.6882  18.1912  18.9484  19.1181  19.2783  20.0016
    20.7685  20.8812  21.4919  21.6277  22.5181  22.7042  23.0035  23.1399
    24.2664  24.3978  24.8670  25.0336  25.3159  25.5959  25.9152  26.0223
    26.1245  26.8198  27.7366  28.0631  28.2768  28.4045

          k = 0.5775 0.1663 0.0000 (  7580 PWs)   bands (ev):

   -15.3383 -15.3334 -15.2983 -15.2927  -3.7171  -3.6958  -3.3451  -3.3194
    -1.9926  -1.9815  -1.8229  -1.8104  -0.5499  -0.4673   0.0824   0.1866
     3.0398   3.0692   5.4498   5.5075   8.2640   8.5808   9.0955   9.4305
     9.5286   9.8113  10.0165  10.1450  10.3187  10.8899  11.7321  12.0734
    12.6946  14.0225  14.4526  14.5454  15.0618  15.3710  15.4534  16.0116
    16.5748  17.2374  17.6965  18.1289  18.8805  19.0867  19.3663  19.9949
    20.7614  20.8040  21.6125  21.6354  22.6303  22.6360  23.0134  23.0997
    24.2644  24.3865  24.7352  24.9283  25.2067  25.5071  25.7400  26.0730
    26.2347  26.8955  27.5146  28.1736  28.1805  28.4147

          k = 0.5775 0.1552 0.0000 (  7584 PWs)   bands (ev):

   -15.3419 -15.3369 -15.3016 -15.2960  -3.7454  -3.7241  -3.3710  -3.3451
    -1.9249  -1.9142  -1.7627  -1.7509  -0.5634  -0.4809   0.0773   0.1822
     3.0204   3.0506   5.4113   5.4751   8.1675   8.4806   9.1502   9.5569
     9.5959   9.8210  10.0215  10.1223  10.2721  10.8568  11.7205  12.0451
    12.7458  13.9330  14.5887  14.6481  15.0260  15.4627  15.4713  16.1436
    16.4488  17.2976  17.7068  18.0306  18.8203  19.0536  19.4968  19.9883
    20.6425  20.8380  21.6345  21.7245  22.5608  22.7540  23.0231  23.0537
    24.2551  24.3364  24.6105  24.8580  25.0907  25.4221  25.5916  26.1314
    26.3511  26.9555  27.2655  28.1007  28.3202  28.4220

          k = 0.5775 0.1441 0.0000 (  7566 PWs)   bands (ev):

   -15.3453 -15.3403 -15.3048 -15.2992  -3.7721  -3.7507  -3.3953  -3.3693
    -1.8586  -1.8484  -1.7043  -1.6930  -0.5767  -0.4943   0.0724   0.1778
     3.0017   3.0327   5.3714   5.4410   8.0738   8.3835   9.1876   9.6804
     9.6949   9.8293  10.0258  10.0998  10.2295  10.8246  11.7096  12.0181
    12.7931  13.8386  14.7229  14.7529  14.9911  15.4931  15.5517  16.2818
    16.2912  17.3868  17.7195  17.9156  18.7675  19.0184  19.6505  19.9819
    20.5252  20.8697  21.6247  21.8204  22.5015  22.8709  23.0037  23.0326
    24.2393  24.2448  24.4965  24.8308  24.9681  25.3422  25.4721  26.1875
    26.4676  26.9874  27.0213  28.0704  28.4270  28.4591

          k = 0.5775 0.1330 0.0000 (  7574 PWs)   bands (ev):

   -15.3486 -15.3436 -15.3079 -15.3023  -3.7971  -3.7755  -3.4181  -3.3919
    -1.7942  -1.7845  -1.6479  -1.6372  -0.5897  -0.5075   0.0677   0.1736
     2.9838   3.0154   5.3307   5.4060   7.9837   8.2902   9.2109   9.7933
     9.8276   9.8359  10.0293  10.0782  10.1909  10.7936  11.6995  11.9922
    12.8363  13.7395  14.8539  14.8592  14.9571  15.5186  15.6370  16.1182
    16.4243  17.4898  17.7350  17.7962  18.7217  18.9811  19.8143  19.9758
    20.4101  20.8986  21.6069  21.8893  22.4622  22.9514  22.9843  23.0418
    24.1265  24.2179  24.3951  24.8372  24.8438  25.2683  25.3790  26.2184
    26.5781  26.8083  26.9840  28.0898  28.4301  28.5472

          k = 0.5775 0.1219 0.0000 (  7572 PWs)   bands (ev):

   -15.3518 -15.3467 -15.3109 -15.3053  -3.8202  -3.7985  -3.4391  -3.4129
    -1.7321  -1.7229  -1.5941  -1.5839  -0.6024  -0.5203   0.0632   0.1696
     2.9667   2.9990   5.2899   5.3708   7.8980   8.2014   9.2245   9.8405
     9.9177   9.9617  10.0321  10.0621  10.1568  10.7643  11.6902  11.9674
    12.8752  13.6360  14.9240  14.9653  14.9815  15.5473  15.7175  15.9385
    16.5688  17.5985  17.6800  17.7537  18.6824  18.9412  19.9699  19.9790
    20.2980  20.9243  21.5832  21.9193  22.4529  22.8997  23.0508  23.0898
    23.9999  24.1920  24.3069  24.7256  24.8650  25.2008  25.3070  26.1681
    26.6752  26.6839  26.9478  28.1551  28.4316  28.4879

          k = 0.5775 0.1108 0.0000 (  7578 PWs)   bands (ev):

   -15.3547 -15.3497 -15.3137 -15.3081  -3.8414  -3.8197  -3.4585  -3.4321
    -1.6730  -1.6642  -1.5432  -1.5335  -0.6147  -0.5328   0.0589   0.1658
     2.9506   2.9836   5.2498   5.3359   7.8172   8.1178   9.2321   9.8431
    10.0204  10.0343  10.0517  10.1243  10.1273  10.7368  11.6818  11.9431
    12.9099  13.5282  14.8921  15.0711  15.1033  15.5783  15.7572  15.7926
    16.7126  17.5723  17.7085  17.7760  18.6496  18.8987  19.9647  20.1353
    20.1897  20.9464  21.5586  21.9086  22.4733  22.8505  23.0595  23.1803
    23.8811  24.1627  24.2317  24.6211  24.9071  25.1400  25.2515  26.0043
    26.6787  26.7523  26.8895  28.2551  28.4316  28.4422

          k = 0.5775 0.0998 0.0000 (  7578 PWs)   bands (ev):

   -15.3575 -15.3525 -15.3164 -15.3107  -3.8608  -3.8390  -3.4761  -3.4496
    -1.6172  -1.6088  -1.4956  -1.4864  -0.6264  -0.5448   0.0549   0.1623
     2.9357   2.9692   5.2111   5.3020   7.7420   8.0401   9.2359   9.8434
    10.0061  10.0359  10.1024  10.1912  10.2623  10.7117  11.6743  11.9190
    12.9404  13.4165  14.8615  15.1751  15.2187  15.5783  15.6109  15.8610
    16.8508  17.4789  17.8020  17.8166  18.6233  18.8533  19.9598  20.0863
    20.2734  20.9648  21.5421  21.8692  22.5097  22.8056  23.0678  23.2415
    23.7888  24.1310  24.1686  24.5363  24.9608  25.0859  25.2088  25.7828
    26.7384  26.7989  26.8199  28.3775  28.4196  28.4300

          k = 0.5775 0.0887 0.0000 (  7572 PWs)   bands (ev):

   -15.3601 -15.3550 -15.3188 -15.3131  -3.8782  -3.8564  -3.4920  -3.4653
    -1.5653  -1.5573  -1.4517  -1.4430  -0.6375  -0.5562   0.0513   0.1591
     2.9220   2.9561   5.1744   5.2698   7.6730   7.9688   9.2374   9.8417
     9.9884  10.0371  10.0823  10.3338  10.4045  10.6897  11.6677  11.8947
    12.9668  13.3014  14.8326  15.2762  15.3262  15.4048  15.6441  15.9220
    16.9730  17.4099  17.8326  17.9192  18.6037  18.8050  19.9555  19.9889
    20.3804  20.9795  21.5464  21.8153  22.5466  22.7658  23.0756  23.2526
    23.7456  24.0982  24.1166  24.4747  25.0254  25.0385  25.1768  25.5449
    26.7470  26.8081  26.8212  28.4258  28.4281  28.5128

          k = 0.5775 0.0776 0.0000 (  7568 PWs)   bands (ev):

   -15.3624 -15.3573 -15.3209 -15.3153  -3.8936  -3.8717  -3.5060  -3.4793
    -1.5177  -1.5101  -1.4120  -1.4037  -0.6479  -0.5669   0.0480   0.1561
     2.9096   2.9443   5.1404   5.2397   7.6108   7.9045   9.2375   9.8381
     9.9715  10.0379  10.0666  10.4746  10.5452  10.6731  11.6620  11.8695
    12.9894  13.1838  14.8059  15.2398  15.3732  15.4247  15.6769  15.9748
    17.0548  17.3886  17.8675  18.0136  18.5914  18.7538  19.8985  19.9518
    20.4446  20.9905  21.5847  21.7565  22.5747  22.7312  23.0828  23.2092
    23.7572  24.0655  24.0745  24.4375  24.9975  25.1011  25.1539  25.3058
    26.6765  26.7783  26.9106  28.4158  28.4704  28.6534

          k = 0.5775 0.0665 0.0000 (  7562 PWs)   bands (ev):

   -15.3644 -15.3593 -15.3229 -15.3172  -3.9070  -3.8851  -3.5182  -3.4914
    -1.4751  -1.4678  -1.3767  -1.3688  -0.6574  -0.5767   0.0451   0.1535
     2.8987   2.9339   5.1096   5.2124   7.5557   7.8477   9.2369   9.8332
     9.9563  10.0383  10.0549  10.5922  10.6768  10.6859  11.6572  11.8429
    13.0083  13.0654  14.7817  15.0864  15.4644  15.5129  15.7081  16.0189
    17.0706  17.4383  17.9069  18.0962  18.5874  18.7000  19.8166  19.9485
    20.4622  20.9982  21.6628  21.6987  22.5905  22.7009  23.0893  23.1351
    23.8003  24.0341  24.0413  24.4226  24.9626  25.0725  25.1392  25.1884
    26.6114  26.7119  27.0007  28.3818  28.5389  28.5437

          k = 0.5775 0.0554 0.0000 (  7578 PWs)   bands (ev):

   -15.3661 -15.3611 -15.3245 -15.3189  -3.9184  -3.8965  -3.5286  -3.5017
    -1.4379  -1.4308  -1.3463  -1.3387  -0.6659  -0.5855   0.0426   0.1513
     2.8893   2.9249   5.0826   5.1884   7.5083   7.7988   9.2358   9.8276
     9.9429  10.0385  10.0465  10.6156  10.7798  10.8131  11.6531  11.8144
    12.9482  13.0240  14.7605  14.9478  15.5483  15.5897  15.7366  16.0537
    17.0450  17.5316  17.9504  18.1640  18.5922  18.6441  19.7444  19.9458
    20.4417  21.0027  21.6454  21.7746  22.5948  22.6735  23.0539  23.0949
    23.8520  24.0053  24.0163  24.4253  24.8500  24.9338  25.1318  25.2875
    26.5541  26.6162  27.0867  28.2804  28.4733  28.6404

          k = 0.5775 0.0443 0.0000 (  7590 PWs)   bands (ev):

   -15.3676 -15.3625 -15.3259 -15.3202  -3.9277  -3.9058  -3.5371  -3.5102
    -1.4066  -1.3998  -1.3210  -1.3136  -0.6733  -0.5930   0.0405   0.1494
     2.8815   2.9175   5.0598   5.1681   7.4690   7.7583   9.2347   9.8219
     9.9318  10.0382  10.0410  10.6082  10.9044  10.9340  11.6499  11.7839
    12.8363  13.0364  14.7425  14.8276  15.6228  15.6540  15.7615  16.0795
    17.0102  17.6324  17.9971  18.2150  18.5864  18.6061  19.6831  19.9436
    20.3981  21.0048  21.5991  21.9065  22.5907  22.6470  22.9785  23.0996
    23.9006  23.9802  23.9993  24.4391  24.6437  24.9105  25.1307  25.3982
    26.4989  26.5060  27.1647  28.1516  28.4564  28.7515

          k = 0.5775 0.0333 0.0000 (  7582 PWs)   bands (ev):

   -15.3687 -15.3636 -15.3270 -15.3213  -3.9350  -3.9130  -3.5437  -3.5167
    -1.3817  -1.3750  -1.3010  -1.2939  -0.6793  -0.5992   0.0388   0.1479
     2.8754   2.9117   5.0417   5.1519   7.4381   7.7264   9.2336   9.8169
     9.9230  10.0360  10.0394  10.5997  11.0181  11.0416  11.6474  11.7521
    12.7348  13.0458  14.7253  14.7320  15.6857  15.7053  15.7816  16.0967
    16.9788  17.7233  18.0452  18.2497  18.5307  18.6241  19.6340  19.9420
    20.3469  21.0052  21.5614  22.0438  22.5822  22.6188  22.9154  23.1033
    23.9408  23.9596  23.9908  24.4573  24.4605  24.8927  25.1340  25.5195
    26.3673  26.4677  27.2309  28.0375  28.4501  28.8667

          k = 0.5775 0.0222 0.0000 (  7584 PWs)   bands (ev):

   -15.3696 -15.3645 -15.3277 -15.3221  -3.9403  -3.9182  -3.5485  -3.5215
    -1.3635  -1.3570  -1.2865  -1.2796  -0.6837  -0.6037   0.0376   0.1469
     2.8710   2.9075   5.0285   5.1402   7.4158   7.7035   9.2327   9.8129
     9.9166  10.0337  10.0391  10.5930  11.1104  11.1298  11.6456  11.7214
    12.6512  13.0523  14.6554  14.7181  15.7338  15.7429  15.7961  16.1067
    16.9550  17.7951  18.0910  18.2710  18.4791  18.6426  19.5981  19.9408
    20.3006  21.0047  21.5337  22.1722  22.5731  22.5866  22.8682  23.1060
    23.9443  23.9701  23.9922  24.3086  24.4744  24.8800  25.1394  25.6498
    26.2272  26.4401  27.2816  27.9503  28.4470  28.9729

          k = 0.5775 0.0111 0.0000 (  7584 PWs)   bands (ev):

   -15.3701 -15.3650 -15.3282 -15.3225  -3.9434  -3.9214  -3.5513  -3.5243
    -1.3525  -1.3460  -1.2778  -1.2710  -0.6864  -0.6065   0.0369   0.1463
     2.8683   2.9049   5.0205   5.1330   7.4023   7.6896   9.2322   9.8104
     9.9127  10.0324  10.0391  10.5889  11.1718  11.1898  11.6445  11.6975
    12.5950  13.0562  14.6102  14.7118  15.7633  15.7674  15.8047  16.1114
    16.9403  17.8410  18.1274  18.2822  18.4393  18.6562  19.5762  19.9401
    20.2687  21.0040  21.5167  22.2740  22.5510  22.5668  22.8391  23.1076
    23.9349  23.9877  24.0035  24.1998  24.4861  24.8725  25.1442  25.7862
    26.0840  26.4234  27.3136  27.8957  28.4456  29.0316

          k = 0.5775 0.0000 0.0000 (  7582 PWs)   bands (ev):

   -15.3702 -15.3651 -15.3284 -15.3227  -3.9444  -3.9224  -3.5523  -3.5252
    -1.3488  -1.3423  -1.2749  -1.2681  -0.6873  -0.6075   0.0367   0.1461
     2.8675   2.9041   5.0178   5.1306   7.3978   7.6850   9.2320   9.8095
     9.9114  10.0320  10.0390  10.5875  11.1936  11.2114  11.6442  11.6881
    12.5750  13.0575  14.5949  14.7096  15.7722  15.7770  15.8074  16.1126
    16.9354  17.8569  18.1421  18.2856  18.4234  18.6612  19.5689  19.9399
    20.2574  21.0037  21.5110  22.3178  22.5312  22.5643  22.8293  23.1081
    23.9318  23.9939  24.0131  24.1559  24.4903  24.8700  25.1461  25.8986
    25.9692  26.4178  27.3246  27.8771  28.4451  29.0299

          k = 0.5583 0.0000 0.0000 (  7580 PWs)   bands (ev):

   -15.3719 -15.3668 -15.3299 -15.3243  -3.9393  -3.9173  -3.5465  -3.5195
    -1.3474  -1.3410  -1.2736  -1.2668  -0.6945  -0.6144   0.0342   0.1439
     2.8659   2.9025   5.0311   5.1449   7.3942   7.6829   9.2209   9.7806
     9.9094  10.0357  10.0569  10.5912  11.1961  11.2140  11.6461  11.6835
    12.5867  13.0677  14.6058  14.7037  15.7670  15.7719  15.8096  16.1198
    16.9453  17.8475  18.1440  18.2756  18.4234  18.6445  19.5783  19.9334
    20.2587  21.0119  21.5258  22.3012  22.5347  22.5691  22.8404  23.0470
    23.9895  23.9965  24.0238  24.1661  24.4326  24.8741  25.2114  25.8869
    25.9731  26.4145  27.3103  27.8677  28.4406  29.0319

          k = 0.5390 0.0000 0.0000 (  7574 PWs)   bands (ev):

   -15.3768 -15.3717 -15.3346 -15.3289  -3.9239  -3.9021  -3.5294  -3.5024
    -1.3433  -1.3368  -1.2696  -1.2629  -0.7158  -0.6348   0.0267   0.1376
     2.8611   2.8978   5.0708   5.1874   7.3829   7.6763   9.1881   9.7163
     9.9030  10.0272  10.1089  10.6029  11.2038  11.2216  11.6517  11.6710
    12.6195  13.0976  14.6377  14.6878  15.7514  15.7564  15.8160  16.1412
    16.9745  17.8196  18.1508  18.2462  18.4234  18.5951  19.6058  19.9143
    20.2623  21.0359  21.5690  22.2548  22.5453  22.5840  22.8731  22.9029
    23.9753  24.0524  24.1515  24.1965  24.3029  24.8859  25.3634  25.8526
    25.9841  26.4042  27.2669  27.8401  28.4254  29.0384

          k = 0.5198 0.0000 0.0000 (  7563 PWs)   bands (ev):

   -15.3850 -15.3799 -15.3422 -15.3365  -3.8984  -3.8769  -3.5010  -3.4741
    -1.3364  -1.3300  -1.2631  -1.2564  -0.7503  -0.6681   0.0143   0.1271
     2.8531   2.8901   5.1358   5.2573   7.3630   7.6642   9.1354   9.6408
     9.8906  10.0145  10.1660  10.6238  11.2164  11.2341  11.6522  11.6626
    12.6671  13.1463  14.6670  14.6896  15.7250  15.7304  15.8258  16.1773
    17.0214  17.7733  18.1662  18.2001  18.4242  18.5153  19.6494  19.8846
    20.2672  21.0732  21.6362  22.1873  22.5630  22.6103  22.7279  22.9258
    23.9501  24.0884  24.1526  24.2454  24.3445  24.9045  25.5491  25.7988
    25.9999  26.3863  27.1937  27.7959  28.3949  29.0508

          k = 0.5005 0.0000 0.0000 (  7561 PWs)   bands (ev):

   -15.3964 -15.3911 -15.3528 -15.3471  -3.8631  -3.8420  -3.4614  -3.4346
    -1.3269  -1.3205  -1.2541  -1.2474  -0.7968  -0.7129  -0.0028   0.1126
     2.8417   2.8795   5.2246   5.3529   7.3328   7.6451   9.0654   9.5643
     9.8701   9.9999  10.2208  10.6556  11.2339  11.2515  11.6357  11.6752
    12.7197  13.2117  14.6522  14.7569  15.6874  15.6934  15.8380  16.2284
    17.0842  17.7090  18.1406  18.1948  18.4070  18.4281  19.7058  19.8468
    20.2723  21.1199  21.7210  22.1091  22.5488  22.5879  22.6505  22.9955
    23.9120  24.0038  24.1188  24.3104  24.5486  24.9286  25.7302  25.7442
    26.0177  26.3592  27.0902  27.7355  28.3440  29.0492

          k = 0.4813 0.0000 0.0000 (  7563 PWs)   bands (ev):

   -15.4106 -15.4053 -15.3662 -15.3604  -3.8184  -3.7977  -3.4109  -3.3842
    -1.3148  -1.3085  -1.2426  -1.2360  -0.8536  -0.7677  -0.0243   0.0943
     2.8268   2.8660   5.3352   5.4724   7.2903   7.6168   8.9817   9.4923
     9.8387   9.9862  10.2716  10.6989  11.2560  11.2734  11.6247  11.6918
    12.7659  13.2909  14.6531  14.8377  15.6382  15.6453  15.8522  16.2951
    17.1608  17.6278  18.0719  18.2421  18.2773  18.4333  19.7699  19.8044
    20.2755  21.1717  21.8148  22.0293  22.3793  22.6199  22.7080  23.0783
    23.8586  23.8653  24.1318  24.3877  24.7504  24.9563  25.6528  25.9362
    26.0351  26.3203  26.9586  27.6565  28.2704  28.7835

          k = 0.4620 0.0000 0.0000 (  7587 PWs)   bands (ev):

   -15.4277 -15.4223 -15.3822 -15.3763  -3.7646  -3.7445  -3.3498  -3.3232
    -1.3002  -1.2940  -1.2289  -1.2222  -0.9189  -0.8307  -0.0500   0.0726
     2.8080   2.8498   5.4652   5.6136   7.2336   7.5772   8.8884   9.4282
     9.7939   9.9769  10.3189  10.7538  11.2823  11.2995  11.6260  11.7116
    12.7948  13.3799  14.6810  14.9283  15.5769  15.5857  15.8694  16.3776
    17.2499  17.5309  17.9979  18.1281  18.3123  18.4440  19.7610  19.8352
    20.2751  21.2235  21.9086  21.9546  22.2287  22.6586  22.7864  23.1691
    23.7412  23.7873  24.1182  24.4720  24.9411  24.9859  25.5743  26.0509
    26.1172  26.2656  26.8045  27.5513  28.1781  28.4941

          k = 0.4428 0.0000 0.0000 (  7603 PWs)   bands (ev):

   -15.4473 -15.4418 -15.4006 -15.3946  -3.7023  -3.6830  -3.2784  -3.2520
    -1.2833  -1.2772  -1.2128  -1.2063  -0.9907  -0.8999  -0.0794   0.0476
     2.7854   2.8308   5.6116   5.7741   7.1608   7.5238   8.7899   9.3746
     9.7340   9.9755  10.3642  10.8189  11.3125  11.3295  11.6445  11.7346
    12.7994  13.4739  14.7436  15.0252  15.5033  15.5144  15.8926  16.4764
    17.3503  17.4201  17.9225  17.9645  18.4087  18.4610  19.7202  19.8936
    20.2688  21.2693  21.8896  21.9945  22.1056  22.7035  22.8880  23.2618
    23.6335  23.6951  24.0731  24.5554  25.0155  25.1136  25.5031  26.0660
    26.1901  26.2800  26.6380  27.4072  28.0794  28.1925

          k = 0.4235 0.0000 0.0000 (  7591 PWs)   bands (ev):

   -15.4691 -15.4635 -15.4210 -15.4150  -3.6323  -3.6140  -3.1971  -3.1709
    -1.2642  -1.2581  -1.1947  -1.1882  -1.0668  -0.9734  -0.1121   0.0199
     2.7586   2.8090   5.7710   5.9514   7.0709   7.4546   8.6908   9.3322
     9.6586   9.9851  10.4099  10.8917  11.3462  11.3630  11.6839  11.7606
    12.7793  13.5673  14.8432  15.1256  15.4177  15.4316  15.9263  16.5913
    17.2977  17.4617  17.7911  17.8489  18.4859  18.5324  19.6852  19.9361
    20.2546  21.3026  21.8364  22.0181  22.0678  22.7537  23.0119  23.3510
    23.5430  23.5800  23.9949  24.6269  25.0435  25.2601  25.4477  26.0823
    26.0889  26.4192  26.4738  27.2124  27.8858  27.9904

          k = 0.4043 0.0000 0.0000 (  7613 PWs)   bands (ev):

   -15.4929 -15.4872 -15.4434 -15.4372  -3.5554  -3.5381  -3.1063  -3.0805
    -1.2431  -1.2371  -1.1747  -1.1683  -1.1453  -1.0490  -0.1477  -0.0104
     2.7275   2.7843   5.9393   6.1429   6.9637   7.3681   8.5957   9.3010
     9.5692  10.0082  10.4585  10.9682  11.3827  11.3992  11.7461  11.7897
    12.7410  13.6539  14.9761  15.2264  15.3205  15.3376  15.9768  16.7222
    17.1666  17.5835  17.6121  17.7800  18.5199  18.6832  19.6590  19.9546
    20.2306  21.3158  21.7952  21.9728  22.1271  22.8081  23.1530  23.4323
    23.4406  23.4699  23.8860  24.6715  25.0680  25.3675  25.4152  25.9645
    26.1029  26.3298  26.5296  26.9661  27.5784  27.9202

          k = 0.3850 0.0000 0.0000 (  7607 PWs)   bands (ev):

   -15.5185 -15.5126 -15.4673 -15.4611  -3.4727  -3.4566  -3.0067  -2.9813
    -1.2240  -1.2201  -1.2142  -1.1528  -1.1466  -1.1249  -0.1856  -0.0428
     2.6919   2.7566   6.1116   6.3454   6.8399   7.2640   8.5103   9.2793
     9.4687  10.0464  10.5129  11.0424  11.4214  11.4377  11.8215  11.8318
    12.6963  13.7277  15.1354  15.2126  15.2332  15.3253  16.0508  16.8687
    17.0299  17.4315  17.7155  17.7183  18.5639  18.8596  19.6436  19.9440
    20.1954  21.3006  21.7645  21.9726  22.1740  22.8657  23.2769  23.3025
    23.4136  23.5050  23.7517  24.6720  25.0876  25.3974  25.4079  25.8493
    26.1307  26.2244  26.6069  26.6806  27.2737  27.8693

          k = 0.3658 0.0000 0.0000 (  7623 PWs)   bands (ev):

   -15.5454 -15.5394 -15.4926 -15.4862  -3.3855  -3.3707  -2.8988  -2.8738
    -1.3008  -1.1989  -1.1954  -1.1896  -1.1295  -1.1234  -0.2255  -0.0768
     2.6516   2.7258   6.2813   6.5556   6.7008   7.1425   8.4411   9.2648
     9.3616  10.1004  10.5758  11.1059  11.4616  11.4777  11.8573  11.9391
    12.6603  13.7843  15.0954  15.1194  15.3134  15.4198  16.1539  16.8908
    17.0299  17.2528  17.6653  17.8569  18.6186  19.0593  19.6406  19.9047
    20.1485  21.2497  21.7406  22.0150  22.2104  22.9252  23.0901  23.3734
    23.4487  23.5718  23.5997  24.6162  25.1006  25.2790  25.4202  25.8159
    26.1674  26.1680  26.3758  26.6480  26.9763  27.8339

          k = 0.3465 0.0000 0.0000 (  7629 PWs)   bands (ev):

   -15.5733 -15.5672 -15.5188 -15.5123  -3.2953  -3.2819  -2.7832  -2.7587
    -1.3735  -1.2690  -1.1694  -1.1637  -1.1049  -1.0988  -0.2667  -0.1121
     2.6065   2.6915   6.4400   6.5485   6.7691   7.0048   8.3962   9.2525
     9.2561  10.1698  10.6499  11.1484  11.5025  11.5183  11.8963  12.0676
    12.6489  13.8213  14.9703  14.9977  15.5007  15.5100  16.2895  16.7527
    17.0793  17.2046  17.6229  18.0049  18.6844  19.2795  19.6509  19.8413
    20.0914  21.1579  21.7176  22.0926  22.2381  22.8826  22.9856  23.3479
    23.4404  23.5758  23.6375  24.5041  25.0309  25.1054  25.4349  25.8544
    26.0761  26.1508  26.2164  26.6511  26.6964  27.4265

          k = 0.3273 0.0000 0.0000 (  7637 PWs)   bands (ev):

   -15.6020 -15.5957 -15.5458 -15.5391  -3.2042  -3.1921  -2.6606  -2.6368
    -1.4398  -1.3327  -1.1422  -1.1366  -1.0792  -1.0733  -0.3089  -0.1482
     2.5565   2.6537   6.3847   6.5776   6.8526   6.9795   8.3857   9.1525
     9.2470  10.2534  10.7369  11.1606  11.5431  11.5587  11.9393  12.2156
    12.6764  13.8390  14.8393  14.8697  15.5876  15.6972  16.4579  16.6187
    16.9140  17.3914  17.5921  18.1543  18.7613  19.5171  19.6750  19.7610
    20.0290  21.0238  21.6866  22.1953  22.2574  22.6575  23.0460  23.2866
    23.3360  23.6616  23.7047  24.3453  24.7153  25.1004  25.4206  25.8115
    25.9169  26.1463  26.2764  26.4544  26.6158  27.0572

          k = 0.3080 0.0000 0.0000 (  7637 PWs)   bands (ev):

   -15.6310 -15.6246 -15.5730 -15.5663  -3.1147  -3.1036  -2.5318  -2.5087
    -1.4968  -1.3877  -1.1141  -1.1087  -1.0527  -1.0469  -0.3515  -0.1848
     2.5016   2.6123   6.2120   6.6828   6.6889   7.1777   8.4195   9.0689
     9.2390  10.3495  10.8381  11.1387  11.5825  11.5978  11.9867  12.3813
    12.7505  13.8396  14.7042  14.7372  15.6576  15.8909  16.4922  16.6575
    16.7596  17.5735  17.5882  18.2946  18.8492  19.6713  19.7126  19.7688
    19.9721  20.8504  21.6362  22.2674  22.3129  22.4181  23.1052  23.1538
    23.3358  23.6791  23.7696  24.1503  24.3629  25.0839  25.3404  25.6183
    25.9885  26.1068  26.2761  26.3479  26.5433  26.7696

          k = 0.2888 0.0000 0.0000 (  7639 PWs)   bands (ev):

   -15.6601 -15.6536 -15.6004 -15.5935  -3.0296  -3.0190  -2.3976  -2.3753
    -1.5415  -1.4313  -1.0855  -1.0802  -1.0256  -1.0199  -0.3940  -0.2214
     2.4418   2.5670   6.0322   6.5139   6.7504   7.3503   8.5043   9.0175
     9.2295  10.4556  10.9541  11.0859  11.6198  11.6348  12.0393  12.5628
    12.8708  13.8266  14.5668  14.6022  15.7162  16.0793  16.3757  16.6186
    16.8845  17.5674  17.7919  18.4078  18.9479  19.5791  19.7635  19.9399
    20.0308  20.6436  21.5541  22.1681  22.2649  22.4343  23.0571  23.1610
    23.3456  23.6089  23.8179  23.9263  23.9919  25.0543  25.1910  25.5255
    25.9840  26.0684  26.1583  26.4293  26.4375  26.5990

          k = 0.2695 0.0000 0.0000 (  7641 PWs)   bands (ev):

   -15.6889 -15.6823 -15.6275 -15.6205  -2.9523  -2.9415  -2.2590  -2.2378
    -1.5707  -1.4605  -1.0565  -1.0514  -0.9983  -0.9928  -0.4359  -0.2576
     2.3771   2.5179   5.8474   6.3321   6.7783   7.4798   8.6393   9.0169
     9.2176  10.5692  11.0104  11.0846  11.6540  11.6687  12.0979  12.7583
    13.0313  13.8037  14.4292  14.4665  15.7622  16.2577  16.2720  16.4930
    17.1346  17.5730  17.9985  18.4702  19.0568  19.4909  19.8269  19.9592
    20.2980  20.4117  21.4326  21.9110  22.2429  22.5460  23.0074  23.2043
    23.3633  23.4648  23.6197  23.6844  23.8192  25.0102  25.0251  25.5338
    25.7986  26.0594  26.1582  26.3000  26.5119  26.5225

          k = 0.2503 0.0000 0.0000 (  7641 PWs)   bands (ev):

   -15.7172 -15.7104 -15.6541 -15.6470  -2.8863  -2.8742  -2.1171  -2.0970
    -1.5811  -1.4728  -1.0276  -1.0227  -0.9710  -0.9656  -0.4769  -0.2930
     2.3079   2.4649   5.6596   6.1453   6.7737   7.5514   8.8172   9.0827
     9.2032  10.6873  10.9212  11.2286  11.6841  11.6986  12.1636  12.9658
    13.2246  13.7742  14.2932  14.3319  15.7946  16.1832  16.3844  16.4205
    17.4033  17.5891  18.2011  18.4658  19.1754  19.4142  19.9019  20.0510
    20.1638  20.5629  21.2724  21.6500  22.1899  22.6171  23.0061  23.1802
    23.2802  23.2939  23.3866  23.4820  23.7336  24.9079  24.9506  25.6053
    25.6172  25.9489  26.1392  26.2601  26.4406  26.6235

          k = 0.2310 0.0000 0.0000 (  7641 PWs)   bands (ev):

   -15.7446 -15.7377 -15.6799 -15.6727  -2.8347  -2.8199  -1.9728  -1.9541
    -1.5701  -1.4658  -0.9991  -0.9943  -0.9441  -0.9388  -0.5166  -0.3274
     2.2342   2.4083   5.4707   5.9559   6.7455   7.5636   9.0275   9.1864
     9.2173  10.8064  10.8264  11.3849  11.7096  11.7239  12.2376  13.1827
    13.4442  13.7408  14.1604  14.2004  15.8127  16.1108  16.2942  16.5593
    17.6130  17.6857  18.3884  18.4027  19.3029  19.3596  19.9092  19.9874
    20.2155  20.8109  21.0815  21.3881  22.0972  22.5440  22.9670  23.0476
    23.0814  23.1496  23.4125  23.4459  23.5468  24.8581  24.8750  25.4224
    25.7458  25.8314  25.9609  26.3561  26.3759  26.7319

          k = 0.2118 0.0000 0.0000 (  7659 PWs)   bands (ev):

   -15.7709 -15.7639 -15.7047 -15.6973  -2.7989  -2.7800  -1.8278  -1.8106
    -1.5369  -1.4390  -0.9712  -0.9666  -0.9179  -0.9127  -0.5545  -0.3604
     2.1566   2.3482   5.2827   5.7664   6.7022   7.5294   9.1678   9.2596
     9.4080  10.7327  10.9233  11.5515  11.7299  11.7440  12.3209  13.4063
    13.6845  13.7056  14.0325  14.0734  15.8163  16.0560  16.2231  16.6609
    17.6410  17.9763  18.3108  18.5411  19.3441  19.4386  19.6586  20.0822
    20.4348  20.8702  21.0083  21.1285  21.9862  22.2715  22.6590  23.0682
    23.0820  23.1232  23.2872  23.4377  23.4891  24.7837  24.8298  25.2418
    25.7380  25.7723  25.8974  26.2626  26.5058  26.8462

          k = 0.1925 0.0000 0.0000 (  7645 PWs)   bands (ev):

   -15.7957 -15.7886 -15.7281 -15.7207  -2.7785  -2.7544  -1.6833  -1.6679
    -1.4829  -1.3934  -0.9444  -0.9398  -0.8927  -0.8876  -0.5902  -0.3917
     2.0757   2.2852   5.0977   5.5791   6.6506   7.4663   9.1479   9.5028
     9.6374  10.6474  11.0345  11.7264  11.7448  11.7588  12.4143  13.6325
    13.6699  13.9109  13.9410  13.9526  15.8059  16.0192  16.1712  16.7063
    17.6667  18.2296  18.2692  18.6359  19.3865  19.4238  19.5815  20.1847
    20.6481  20.6856  20.8738  21.0823  21.9375  21.9404  22.3316  22.9902
    23.0556  23.1499  23.2249  23.4581  23.5455  24.6778  24.7593  25.0479
    25.5813  25.7086  26.0563  26.1798  26.6491  26.9647

          k = 0.1733 0.0000 0.0000 (  7637 PWs)   bands (ev):

   -15.8190 -15.8118 -15.7500 -15.7425  -2.7713  -2.7412  -1.5411  -1.5276
    -1.4116  -1.3317  -0.9189  -0.9145  -0.8687  -0.8637  -0.6235  -0.4210
     1.9923   2.2198   4.9177   5.3967   6.5954   7.3883   9.1275   9.7434
     9.8910  10.5807  11.1371  11.7543  11.7684  11.9071  12.5179  13.6348
    13.7970  13.8392  13.8560  14.2097  15.7832  16.0000  16.1380  16.6760
    17.6805  18.1941  18.5557  18.6677  19.2194  19.4849  19.7301  20.2934
    20.4229  20.6270  20.9369  20.9875  21.6095  22.0180  22.0242  22.6780
    23.1047  23.2283  23.3466  23.4686  23.5984  24.5596  24.6204  24.8338
    25.3965  25.7554  26.1276  26.2090  26.8038  27.0855

          k = 0.1540 0.0000 0.0000 (  7649 PWs)   bands (ev):

   -15.8404 -15.8331 -15.7702 -15.7626  -2.7740  -2.7380  -1.4032  -1.3918
    -1.3275  -1.2581  -0.8951  -0.8908  -0.8463  -0.8414  -0.6541  -0.4482
     1.9075   2.1531   4.7451   5.2218   6.5400   7.3053   9.1073   9.9547
    10.1584  10.5564  11.2291  11.7590  11.7733  12.0907  12.6306  13.6006
    13.6920  13.7345  14.0685  14.4861  15.7528  15.9973  16.1223  16.5660
    17.6702  18.2202  18.6573  18.8233  19.0619  19.6060  19.8831  20.2006
    20.3907  20.4067  20.8025  21.1074  21.3131  21.7964  22.1777  22.3631
    23.2115  23.3048  23.4632  23.4835  23.6327  24.4310  24.4319  24.6125
    25.2266  25.8552  26.1147  26.3393  26.9670  27.2063

          k = 0.1348 0.0000 0.0000 (  7627 PWs)   bands (ev):

   -15.8597 -15.8524 -15.7884 -15.7807  -2.7831  -2.7418  -1.2717  -1.2627
    -1.2358  -1.1773  -0.8733  -0.8691  -0.8257  -0.8210  -0.6817  -0.4730
     1.8228   2.0862   4.5824   5.0570   6.4870   7.2234   9.0878  10.0842
    10.4316  10.6234  11.3090  11.7595  11.7742  12.2741  12.7499  13.5674
    13.5969  13.6397  14.2575  14.7653  15.7245  16.0093  16.1220  16.3937
    17.6241  18.2999  18.6273  18.9661  19.0512  19.7063  19.9868  20.0384
    20.1685  20.5214  20.6157  21.0189  21.0741  21.8402  22.0528  22.3354
    23.3736  23.3768  23.4372  23.6213  23.6305  24.2182  24.2986  24.4207
    25.0800  25.9805  26.1392  26.4236  27.1347  27.3246

          k = 0.1155 0.0000 0.0000 (  7625 PWs)   bands (ev):

   -15.8769 -15.8694 -15.8046 -15.7968  -2.7958  -2.7498  -1.1497  -1.1450
    -1.1385  -1.0941  -0.8537  -0.8496  -0.8073  -0.8027  -0.7060  -0.4953
     1.7401   2.0209   4.4323   4.9053   6.4381   7.1468   9.0698  10.1131
    10.7037  10.7962  11.3765  11.7568  11.7720  12.4535  12.8718  13.5126
    13.5348  13.5556  14.4045  15.0398  15.7151  16.0332  16.1345  16.1866
    17.5388  18.4153  18.5911  18.9367  19.2053  19.7435  19.7862  19.9632
    20.1932  20.4879  20.6354  20.7505  20.9233  21.7521  22.0647  22.4754
    23.3865  23.4435  23.5296  23.5830  23.7840  24.0020  24.1643  24.3077
    24.9631  26.1131  26.1950  26.4313  27.3026  27.3313

          k = 0.0963 0.0000 0.0000 (  7629 PWs)   bands (ev):

   -15.8916 -15.8841 -15.8185 -15.8107  -2.8096  -2.7599  -1.0519  -1.0382
    -1.0320  -1.0129  -0.8366  -0.8326  -0.7914  -0.7867  -0.7269  -0.5151
     1.6617   1.9591   4.2978   4.7697   6.3948   7.0785   9.0536  10.0940
    10.9673  11.0166  11.4319  11.7519  11.7678  12.6253  12.9913  13.4399
    13.4831  13.5019  14.4887  15.2945  15.7460  15.9764  16.0655  16.1563
    17.4222  18.5497  18.5555  18.9649  19.2530  19.6036  19.6964  19.7788
    20.3437  20.4470  20.4612  20.7449  20.8760  21.4657  22.3173  22.5985
    23.3125  23.3636  23.5055  23.7968  23.8236  23.9390  24.0342  24.2835
    24.8780  26.2415  26.2747  26.3448  27.2853  27.3057

          k = 0.0770 0.0000 0.0000 (  7629 PWs)   bands (ev):

   -15.9039 -15.8963 -15.8301 -15.8222  -2.8229  -2.7701  -0.9674  -0.9442
    -0.9394  -0.9342  -0.8223  -0.8184  -0.7780  -0.7734  -0.7440  -0.5324
     1.5904   1.9032   4.1818   4.6532   6.3581   7.0204   9.0397  10.0634
    11.2139  11.2406  11.4759  11.7461  11.7625  12.7854  13.1021  13.3796
    13.4228  13.4673  14.5018  15.4699  15.8255  15.8362  16.1018  16.1833
    17.2868  18.5234  18.6913  19.0343  19.2056  19.4439  19.5897  19.6191
    20.1498  20.4850  20.5265  20.8458  20.9051  21.1989  22.5422  22.7109
    23.1804  23.2223  23.5619  23.6136  23.9140  24.0775  24.0894  24.3124
    24.8220  26.1832  26.3582  26.3696  27.0925  27.2360

          k = 0.0578 0.0000 0.0000 (  7623 PWs)   bands (ev):

   -15.9135 -15.9059 -15.8392 -15.8312  -2.8343  -2.7793  -0.8952  -0.8779
    -0.8628  -0.8569  -0.8110  -0.8071  -0.7673  -0.7628  -0.7571  -0.5471
     1.5297   1.8558   4.0875   4.5588   6.3287   6.9740   9.0286  10.0343
    11.4314  11.4451  11.5091  11.7403  11.7573  12.9298  13.1977  13.3321
    13.3754  13.4291  14.4600  15.4199  15.9064  15.9548  16.1375  16.2111
    17.1440  18.4972  18.8307  19.1152  19.1275  19.3122  19.4678  19.4885
    19.8757  20.6102  20.6311  20.9330  20.9594  20.9653  22.6812  22.8146
    23.0584  23.1282  23.4615  23.6110  23.8103  24.2269  24.3267  24.3630
    24.7886  25.9862  26.4569  26.4691  26.9050  27.1571

          k = 0.0385 0.0000 0.0000 (  7621 PWs)   bands (ev):

   -15.9204 -15.9128 -15.8457 -15.8378  -2.8431  -2.7865  -0.8396  -0.8295
    -0.8063  -0.8027  -0.7990  -0.7971  -0.7648  -0.7596  -0.7551  -0.5593
     1.4829   1.8195   4.0177   4.4891   6.3074   6.9402   9.0204  10.0117
    11.5322  11.6031  11.6141  11.7355  11.7528  13.0552  13.2717  13.2979
    13.3412  13.3848  14.3952  15.2845  16.0607  16.0973  16.1677  16.2351
    17.0041  18.4779  18.9624  19.0270  19.2135  19.2252  19.3633  19.3913
    19.6372  20.7106  20.7293  20.7602  21.0010  21.0245  22.6671  22.9045
    23.0449  23.0765  23.3475  23.6499  23.7298  24.3405  24.4155  24.5514
    24.7709  25.7927  26.5323  26.5590  26.7550  27.0563

          k = 0.0193 0.0000 0.0000 (  7619 PWs)   bands (ev):

   -15.9246 -15.9170 -15.8497 -15.8417  -2.8485  -2.7910  -0.8045  -0.7991
    -0.7978  -0.7940  -0.7823  -0.7598  -0.7576  -0.7549  -0.7504  -0.5680
     1.4532   1.7967   3.9748   4.4463   6.2944   6.9196   9.0154   9.9975
    11.5459  11.7132  11.7285  11.7323  11.7499  13.1583  13.2772  13.3186
    13.3205  13.3329  14.3398  15.1836  16.1748  16.1879  16.2228  16.2514
    16.8860  18.4660  18.9661  19.0826  19.1521  19.2945  19.3037  19.3312
    19.4469  20.6218  20.7764  20.7958  21.0445  21.0655  22.6016  22.9682
    22.9872  23.1403  23.2770  23.6752  23.6784  24.4169  24.4555  24.7215
    24.7628  25.6409  26.5798  26.6225  26.6565  26.9699

          k = 0.0000 0.0000 0.0000 (  7603 PWs)   bands (ev):

   -15.9260 -15.9184 -15.8510 -15.8430  -2.8504  -2.7926  -0.7961  -0.7924
    -0.7923  -0.7887  -0.7809  -0.7534  -0.7498  -0.7488  -0.7453  -0.5713
     1.4430   1.7889   3.9603   4.4319   6.2900   6.9127   9.0138   9.9927
    11.5505  11.7312  11.7489  11.7515  11.7691  13.2169  13.2703  13.2916
    13.3136  13.3348  14.3182  15.1472  16.1950  16.2161  16.2572  16.2784
    16.8338  18.4620  18.9445  19.1313  19.1554  19.2706  19.3109  19.3348
    19.3494  20.5709  20.7995  20.8191  21.0595  21.0799  22.5740  22.9666
    22.9915  23.1665  23.2532  23.6607  23.6840  24.4441  24.4705  24.7605
    24.7894  25.5794  26.5961  26.6220  26.6455  26.9358

     Writing all to output data dir ./work/Al2O2.save/
 
     init_run     :      0.20s CPU      0.22s WALL (       1 calls)
     electrons    :    187.26s CPU    232.96s WALL (       1 calls)

     Called by init_run:
     wfcinit      :      0.00s CPU      0.00s WALL (       1 calls)
     potinit      :      0.08s CPU      0.09s WALL (       1 calls)
     hinit0       :      0.08s CPU      0.08s WALL (       1 calls)

     Called by electrons:
     c_bands      :    187.26s CPU    232.96s WALL (       1 calls)
     v_of_rho     :      0.00s CPU      0.01s WALL (       1 calls)
     newd         :      0.02s CPU      0.03s WALL (       1 calls)
     PAW_pot      :      0.08s CPU      0.08s WALL (       1 calls)

     Called by c_bands:
     init_us_2    :      0.04s CPU      0.04s WALL (      91 calls)
     init_us_2:cp :      0.04s CPU      0.04s WALL (      91 calls)
     cegterg      :    183.43s CPU    227.90s WALL (     347 calls)

     Called by *egterg:
     cdiaghg      :     31.75s CPU     32.47s WALL (    6353 calls)
     h_psi        :     93.63s CPU    135.54s WALL (    6700 calls)
     s_psi        :      6.44s CPU      6.73s WALL (    6700 calls)
     g_psi        :      0.29s CPU      0.30s WALL (    6262 calls)

     Called by h_psi:
     h_psi:calbec :      7.95s CPU     10.44s WALL (    6700 calls)
     vloc_psi     :     76.48s CPU    115.02s WALL (    6700 calls)
     add_vuspsi   :      8.57s CPU      9.43s WALL (    6700 calls)

     General routines
     calbec       :      7.93s CPU     10.43s WALL (    6700 calls)
     fft          :      0.00s CPU      0.01s WALL (      12 calls)
     fftw         :     73.30s CPU    110.42s WALL (  448292 calls)
     davcio       :      0.05s CPU      0.06s WALL (     182 calls)
 
     Parallel routines
 
     PWSCF        :   3m 8.42s CPU   3m55.33s WALL

 
   This run was terminated on:  14: 9: 4  17Jun2023            

=------------------------------------------------------------------------------=
   JOB DONE.
=------------------------------------------------------------------------------=
