
     Program PWSCF v.7.1 starts on 17Jun2023 at 13:59:24 

     This program is part of the open-source Quantum ESPRESSO suite
     for quantum simulation of materials; please cite
         "P. Giannozzi et al., J. Phys.:Condens. Matter 21 395502 (2009);
         "P. Giannozzi et al., J. Phys.:Condens. Matter 29 465901 (2017);
         "P. Giannozzi et al., J. Chem. Phys. 152 154105 (2020);
          URL http://www.quantum-espresso.org", 
     in publications or presentations arising from this work. More details at
     http://www.quantum-espresso.org/quote

     Parallel version (MPI), running on    16 processors

     MPI processes distributed on     1 nodes
     53384 MiB available memory on the printing compute node when the environment starts
 
     Waiting for input...
     Reading input from standard input

     Current dimensions of program PWSCF are:
     Max number of different atomic species (ntypx) = 10
     Max number of k-points (npk) =  40000
     Max angular momentum in pseudopotentials (lmaxx) =  4
     Message from routine volume:
     axis vectors are left-handed
     file Al.pbe-n-kjpaw_psl.1.0.0.UPF: wavefunction(s)  3S 3P renormalized
     file O.pbe-n-kjpaw_psl.1.0.0.UPF: wavefunction(s)  2S 2P renormalized

     IMPORTANT: XC functional enforced from input :
     Exchange-correlation= VDW-DF2-B86R
                           (   1   4  26   0   2   0   0)
     Any further DFT definition will be discarded
     Please, verify this is what you really want

     Message from routine setup:
     using ibrav=0 with symmetry is DISCOURAGED, use correct ibrav instead
 
     R & G space division:  proc/nbgrp/npool/nimage =      16
     Subspace diagonalization in iterative solution of the eigenvalue problem:
     a serial algorithm will be used

 
     Parallelization info
     --------------------
     sticks:   dense  smooth     PW     G-vecs:    dense   smooth      PW
     Min          39      39     12                 3791     3791     670
     Max          40      40     13                 3799     3799     687
     Sum         625     625    199                60707    60707   10833
 
     Using Slab Decomposition
 


     bravais-lattice index     =            0
     lattice parameter (alat)  =       6.1344  a.u.
     unit-cell volume          =     968.0252 (a.u.)^3
     number of atoms/cell      =            8
     number of atomic types    =            2
     number of electrons       =        36.00
     number of Kohn-Sham states=           70
     kinetic-energy cutoff     =      60.0000  Ry
     charge density cutoff     =     240.0000  Ry
     scf convergence threshold =      1.0E-08
     mixing beta               =       0.5000
     number of iterations used =            8  plain     mixing
     Exchange-correlation= VDW-DF2-B86R
                           (   1   4  26   0   2   0   0)

     celldm(1)=   6.134387  celldm(2)=   0.000000  celldm(3)=   0.000000
     celldm(4)=   0.000000  celldm(5)=   0.000000  celldm(6)=   0.000000

     crystal axes: (cart. coord. in units of alat)
               a(1) = (   0.865734   0.500504   0.000000 )  
               a(2) = (   0.865734  -0.500504   0.000000 )  
               a(3) = (   0.000000   0.000000   4.838949 )  

     reciprocal axes: (cart. coord. in units 2 pi/alat)
               b(1) = (  0.577544  0.998993  0.000000 )  
               b(2) = (  0.577544 -0.998993  0.000000 )  
               b(3) = (  0.000000  0.000000  0.206656 )  


     PseudoPot. # 1 for Al read from file:
     /home/mainadmin/research/danu/pseudo/Al.pbe-n-kjpaw_psl.1.0.0.UPF
     MD5 check sum: 502b6b27b9c6270cab5dd1084b96fa6d
     Pseudo is Projector augmented-wave + core cor, Zval =  3.0
     Generated using &quot;atomic&quot; code by A. Dal Corso  v.6.3
     Shape of augmentation charge: PSQ
     Using radial grid of 1135 points,  6 beta functions with: 
                l(1) =   0
                l(2) =   0
                l(3) =   1
                l(4) =   1
                l(5) =   2
                l(6) =   2
     Q(r) pseudized with 0 coefficients 


     PseudoPot. # 2 for O  read from file:
     /home/mainadmin/research/danu/pseudo/O.pbe-n-kjpaw_psl.1.0.0.UPF
     MD5 check sum: e99d9cef9b487d1ca56f5b95ecd0fd7a
     Pseudo is Projector augmented-wave + core cor, Zval =  6.0
     Generated using &quot;atomic&quot; code by A. Dal Corso  v.6.3
     Shape of augmentation charge: PSQ
     Using radial grid of 1095 points,  4 beta functions with: 
                l(1) =   0
                l(2) =   0
                l(3) =   1
                l(4) =   1
     Q(r) pseudized with 0 coefficients 


     atomic species   valence    mass     pseudopotential
        Al             3.00    26.98100     Al( 1.00)
        O              6.00    15.99900     O ( 1.00)

      2 Sym. Ops. (no inversion) found



   Cartesian axes

     site n.     atom                  positions (alat units)
         1           O   tau(   1) = (   1.1543123   0.0000000   0.0000000  )
         2           Al  tau(   2) = (   0.5771561   0.0000000   0.1709302  )
         3           Al  tau(   3) = (   0.5771561   0.0000000   0.9743090  )
         4           O   tau(   4) = (   1.1543123   0.0000000   1.1454264  )
         5           O   tau(   5) = (   1.1543123   0.0000000   2.4193285  )
         6           Al  tau(   6) = (   0.5771561   0.0000000   2.5897303  )
         7           Al  tau(   7) = (   0.5771561   0.0000000   3.3940051  )
         8           O   tau(   8) = (   1.1543123   0.0000000   3.5650471  )

     number of k points=   140

     Number of k-points >= 100: set verbosity='high' to print them.

     Dense  grid:    60707 G-vectors     FFT dimensions: (  32,  32, 150)

     Estimated max dynamical RAM per process >      88.02 MB

     Estimated total dynamical RAM >       1.38 GB

     Check: negative core charge=   -0.000006

     Initial potential from superposition of free atoms

     starting charge      35.9908, renormalised to      36.0000


     %%%%%%%%%%%%%%%%%%%%%%%%%%%%%%%%%%%%%%%%%%%%%%%%%%%%%%%%%%%%%%%%%%%%%%%%
     %                                                                      %
     % You are using vdW-DF, which was implemented by the Thonhauser group. %
     % Please cite the following two papers that made this development      %
     % possible and the two reviews that describe the various versions:     %
     %                                                                      %
     %   T. Thonhauser et al., PRL 115, 136402 (2015).                      %
     %   T. Thonhauser et al., PRB 76, 125112 (2007).                       %
     %   K. Berland et al., Rep. Prog. Phys. 78, 066501 (2015).             %
     %   D.C. Langreth et al., J. Phys.: Condens. Matter 21, 084203 (2009). %
     %                                                                      %
     % If you are calculating stress with vdW-DF, please also cite:         %
     %                                                                      %
     %   R. Sabatini et al., J. Phys.: Condens. Matter 24, 424209 (2012).   %
     %                                                                      %
     %%%%%%%%%%%%%%%%%%%%%%%%%%%%%%%%%%%%%%%%%%%%%%%%%%%%%%%%%%%%%%%%%%%%%%%%

     %%%%%%%%%%%%%%%%%%%%%%%%%%%%%%%%%%%%%%%%%%%%%%%%%%%%%%%%%%%%%%%%%%%%%%%%
     %                                                                      %
     %  vdW-DF NEWS:                                                        %
     %                                                                      %
     %  * vdW-DF3 is now available. DOI: 10.1021/acs.jctc.0c00471           %
     %    use with input_dft = 'vdW-DF3-opt1' or 'vdW-DF3-opt2'             %
     %                                                                      %
     %  * Unscreened and range-separated vdW-DF hybrid functionals          %
     %    DOI: 10.1063/1.4986522 and 10.1088/1361-648X/ac2ad2               %
     %    use with input_dft = 'vdW-DF-cx0' (etc) and 'vdW-DF-ahcx'         %
     %                                                                      %
     %%%%%%%%%%%%%%%%%%%%%%%%%%%%%%%%%%%%%%%%%%%%%%%%%%%%%%%%%%%%%%%%%%%%%%%%


     Starting wfcs are   32 randomized atomic wfcs +   38 random wfcs
     Checking if some PAW data can be deallocated... 

     total cpu time spent up to now is       11.9 secs

     Self-consistent Calculation

     iteration #  1     ecut=    60.00 Ry     beta= 0.50
     Davidson diagonalization with overlap
     ethr =  1.00E-02,  avg # of iterations =  8.1

     total cpu time spent up to now is       70.4 secs

     total energy              =    -323.75967156 Ry
     estimated scf accuracy    <       1.94013458 Ry

     iteration #  2     ecut=    60.00 Ry     beta= 0.50
     Davidson diagonalization with overlap
     ethr =  5.39E-03,  avg # of iterations =  1.1

     total cpu time spent up to now is       90.6 secs

     total energy              =    -324.22005529 Ry
     estimated scf accuracy    <       0.89596783 Ry

     iteration #  3     ecut=    60.00 Ry     beta= 0.50
     Davidson diagonalization with overlap
     ethr =  2.49E-03,  avg # of iterations =  1.3

     total cpu time spent up to now is      111.2 secs

     total energy              =    -324.41770000 Ry
     estimated scf accuracy    <       0.03091934 Ry

     iteration #  4     ecut=    60.00 Ry     beta= 0.50
     Davidson diagonalization with overlap
     ethr =  8.59E-05,  avg # of iterations =  8.0

     total cpu time spent up to now is      143.7 secs

     total energy              =    -324.43260624 Ry
     estimated scf accuracy    <       0.00515015 Ry

     iteration #  5     ecut=    60.00 Ry     beta= 0.50
     Davidson diagonalization with overlap
     ethr =  1.43E-05,  avg # of iterations =  2.6

     total cpu time spent up to now is      167.8 secs

     total energy              =    -324.43333606 Ry
     estimated scf accuracy    <       0.00028702 Ry

     iteration #  6     ecut=    60.00 Ry     beta= 0.50
     Davidson diagonalization with overlap
     ethr =  7.97E-07,  avg # of iterations =  5.9

     total cpu time spent up to now is      198.2 secs

     total energy              =    -324.43350217 Ry
     estimated scf accuracy    <       0.00032598 Ry

     iteration #  7     ecut=    60.00 Ry     beta= 0.50
     Davidson diagonalization with overlap
     ethr =  7.97E-07,  avg # of iterations =  1.8

     total cpu time spent up to now is      219.8 secs

     total energy              =    -324.43355397 Ry
     estimated scf accuracy    <       0.00000963 Ry

     iteration #  8     ecut=    60.00 Ry     beta= 0.50
     Davidson diagonalization with overlap
     ethr =  2.67E-08,  avg # of iterations =  2.8

     total cpu time spent up to now is      244.2 secs

     total energy              =    -324.43355763 Ry
     estimated scf accuracy    <       0.00000251 Ry

     iteration #  9     ecut=    60.00 Ry     beta= 0.50
     Davidson diagonalization with overlap
     ethr =  6.97E-09,  avg # of iterations =  1.9

     total cpu time spent up to now is      266.5 secs

     total energy              =    -324.43355815 Ry
     estimated scf accuracy    <       0.00000043 Ry

     iteration # 10     ecut=    60.00 Ry     beta= 0.50
     Davidson diagonalization with overlap
     ethr =  1.19E-09,  avg # of iterations =  2.2

     total cpu time spent up to now is      289.8 secs

     total energy              =    -324.43355824 Ry
     estimated scf accuracy    <       0.00000006 Ry

     iteration # 11     ecut=    60.00 Ry     beta= 0.50
     Davidson diagonalization with overlap
     ethr =  1.66E-10,  avg # of iterations =  3.4

     total cpu time spent up to now is      314.6 secs

     total energy              =    -324.43355825 Ry
     estimated scf accuracy    <       0.00000001 Ry

     iteration # 12     ecut=    60.00 Ry     beta= 0.50
     Davidson diagonalization with overlap
     ethr =  3.06E-11,  avg # of iterations =  2.9

     total cpu time spent up to now is      338.6 secs

     End of self-consistent calculation

     Number of k-points >= 100: set verbosity='high' to print the bands.

     highest occupied, lowest unoccupied level (ev):     3.1631    3.8082

!    total energy              =    -324.43355826 Ry
     total all-electron energy =     -2544.392240 Ry
     estimated scf accuracy    <          6.8E-10 Ry

     The total energy is the sum of the following terms:
     one-electron contribution =     -91.04063865 Ry
     hartree contribution      =      63.73318970 Ry
     xc contribution           =     -40.28060364 Ry
     ewald contribution        =     -80.93413326 Ry
     one-center paw contrib.   =    -175.91137240 Ry

     convergence has been achieved in  12 iterations

     Writing all to output data dir ./work/Al2O2.save/
 
     init_run     :      9.75s CPU     11.80s WALL (       1 calls)
     electrons    :    254.83s CPU    326.66s WALL (       1 calls)

     Called by init_run:
     wfcinit      :      5.17s CPU      7.17s WALL (       1 calls)
     potinit      :      4.46s CPU      4.50s WALL (       1 calls)
     hinit0       :      0.08s CPU      0.08s WALL (       1 calls)

     Called by electrons:
     c_bands      :    229.04s CPU    289.67s WALL (      12 calls)
     sum_band     :     24.28s CPU     35.28s WALL (      12 calls)
     v_of_rho     :      4.80s CPU      4.93s WALL (      13 calls)
     newd         :      0.28s CPU      0.30s WALL (      13 calls)
     PAW_pot      :      0.86s CPU      0.94s WALL (      13 calls)
     mix_rho      :      0.02s CPU      0.03s WALL (      12 calls)
     vdW_kernel   :      4.34s CPU      4.36s WALL (       1 calls)

     Called by c_bands:
     init_us_2    :      1.59s CPU      1.71s WALL (    3500 calls)
     init_us_2:cp :      1.57s CPU      1.70s WALL (    3500 calls)
     cegterg      :    221.20s CPU    281.74s WALL (    1680 calls)

     Called by *egterg:
     cdiaghg      :     31.73s CPU     32.58s WALL (    7551 calls)
     h_psi        :    131.79s CPU    190.36s WALL (    7691 calls)
     s_psi        :      9.16s CPU      9.58s WALL (    7691 calls)
     g_psi        :      0.27s CPU      0.28s WALL (    5871 calls)

     Called by h_psi:
     h_psi:calbec :     10.95s CPU     14.30s WALL (    7691 calls)
     vloc_psi     :    106.53s CPU    160.57s WALL (    7691 calls)
     add_vuspsi   :     13.07s CPU     14.23s WALL (    7691 calls)

     General routines
     calbec       :     13.17s CPU     17.29s WALL (    9371 calls)
     fft          :      0.20s CPU      0.29s WALL (     793 calls)
     ffts         :      0.00s CPU      0.00s WALL (      12 calls)
     fftw         :    121.66s CPU    183.25s WALL (  726294 calls)
 
     Parallel routines
 
     PWSCF        :   4m25.51s CPU   5m41.17s WALL

 
   This run was terminated on:  14: 5: 6  17Jun2023            

=------------------------------------------------------------------------------=
   JOB DONE.
=------------------------------------------------------------------------------=
