
     Program BANDS v.7.0 starts on 11Jun2023 at 13:59:30 

     This program is part of the open-source Quantum ESPRESSO suite
     for quantum simulation of materials; please cite
         "P. Giannozzi et al., J. Phys.:Condens. Matter 21 395502 (2009);
         "P. Giannozzi et al., J. Phys.:Condens. Matter 29 465901 (2017);
         "P. Giannozzi et al., J. Chem. Phys. 152 154105 (2020);
          URL http://www.quantum-espresso.org", 
     in publications or presentations arising from this work. More details at
     http://www.quantum-espresso.org/quote

     Parallel version (MPI), running on    16 processors

     MPI processes distributed on     1 nodes
     R & G space division:  proc/nbgrp/npool/nimage =      16
     31586 MiB available memory on the printing compute node when the environment starts
 

     Reading xml data from directory:

     ./work/Al2SO.save/
     Message from routine volume:
     axis vectors are left-handed
     file Al.pbe-n-kjpaw_psl.1.0.0.UPF: wavefunction(s)  3S 3P renormalized
     file O.pbe-n-kjpaw_psl.1.0.0.UPF: wavefunction(s)  2S 2P renormalized
     file S.pbe-n-kjpaw_psl.1.0.0.UPF: wavefunction(s)  3S 3P renormalized

     IMPORTANT: XC functional enforced from input :
     Exchange-correlation= VDW-DF2-B86R
                           (   1   4  26   0   2   0   0)
     Any further DFT definition will be discarded
     Please, verify this is what you really want

 
     Parallelization info
     --------------------
     sticks:   dense  smooth     PW     G-vecs:    dense   smooth      PW
     Min          39      39     11                 3707     3707     591
     Max          40      40     12                 3714     3714     606
     Sum         625     625    187                59367    59367    9611
 
     Using Slab Decomposition
 

     Check: negative core charge=   -0.000004


     %%%%%%%%%%%%%%%%%%%%%%%%%%%%%%%%%%%%%%%%%%%%%%%%%%%%%%%%%%%%%%%%%%%%%%%%
     %                                                                      %
     % You are using vdW-DF, which was implemented by the Thonhauser group. %
     % Please cite the following two papers that made this development      %
     % possible and the two reviews that describe the various versions:     %
     %                                                                      %
     %   T. Thonhauser et al., PRL 115, 136402 (2015).                      %
     %   T. Thonhauser et al., PRB 76, 125112 (2007).                       %
     %   K. Berland et al., Rep. Prog. Phys. 78, 066501 (2015).             %
     %   D.C. Langreth et al., J. Phys.: Condens. Matter 21, 084203 (2009). %
     %                                                                      %
     %                                                                      %
     % If you are calculating the stress with vdW-DF, please also cite:     %
     %                                                                      %
     %   R. Sabatini et al., J. Phys.: Condens. Matter 24, 424209 (2012).   %
     %                                                                      %
     %%%%%%%%%%%%%%%%%%%%%%%%%%%%%%%%%%%%%%%%%%%%%%%%%%%%%%%%%%%%%%%%%%%%%%%%


     Reading collected, re-writing distributed wavefunctions
     high-symmetry point:  0.0000 0.0000 0.0000   x coordinate   0.0000
     high-symmetry point:  0.5775 0.3325 0.0000   x coordinate   0.6664
     high-symmetry point:  0.5775 0.0000 0.0000   x coordinate   0.9990
     high-symmetry point:  0.0000 0.0000 0.0000   x coordinate   1.5765

     Plottable bands (eV) written to file Al2SO.bands.gnu
     Bands written to file Al2SO.bands

 **************************************************************************

                    xk=(   0.00000,   0.00000,   0.00000  )

     point group C_s (m)    
     there are  2 classes
     the character table:

       E     s    
A'     1.00  1.00
A''    1.00 -1.00

     the symmetry operations in each class and the name of the first element:

     E        1
                                                                 
     s        2
                                                                 

     Band symmetry, C_s (m)     point group:

     e(  1 -  1) =    -14.51201  eV     1   --> A'             
     e(  2 -  2) =    -14.50713  eV     1   --> A'             
     e(  3 -  3) =     -9.00242  eV     1   --> A'             
     e(  4 -  4) =     -8.99125  eV     1   --> A'             
     e(  5 -  5) =     -1.59044  eV     1   --> A'             
     e(  6 -  6) =     -1.25918  eV     1   --> A'             
     e(  7 -  7) =      0.16141  eV     1   --> A'             
     e(  8 -  8) =      0.44832  eV     1   --> A''            
     e(  9 -  9) =      0.45188  eV     1   --> A'             
     e( 10 - 10) =      0.45615  eV     1   --> A''            
     e( 11 - 11) =      0.45971  eV     1   --> A'             
     e( 12 - 12) =      1.06942  eV     1   --> A'             
     e( 13 - 13) =      2.75244  eV     1   --> A'             
     e( 14 - 14) =      3.81454  eV     1   --> A'             
     e( 15 - 15) =      4.83295  eV     1   --> A''            
     e( 16 - 16) =      4.84186  eV     1   --> A''            
     e( 17 - 17) =      4.84295  eV     1   --> A'             
     e( 18 - 18) =      4.85187  eV     1   --> A'             
     e( 19 - 19) =      6.15708  eV     1   --> A'             
     e( 20 - 20) =      7.06619  eV     1   --> A'             
     e( 21 - 21) =     10.05307  eV     1   --> A'             
     e( 22 - 22) =     11.22360  eV     1   --> A'             
     e( 23 - 23) =     11.36384  eV     1   --> A'             
     e( 24 - 24) =     11.79589  eV     1   --> A'             
     e( 25 - 25) =     12.32065  eV     1   -->   ?

 **************************************************************************

 **************************************************************************

                    xk=(   0.01925,   0.01108,   0.00000  )

     point group C_1 (1)    
     there are  1 classes
     the character table:

       E    
A      1.00

     the symmetry operations in each class and the name of the first element:

     E        1
                                                                 

     Band symmetry, C_1 (1)     point group:

     e(  1 -  1) =    -14.51018  eV     1   --> A              
     e(  2 -  2) =    -14.50531  eV     1   --> A              
     e(  3 -  3) =     -8.99757  eV     1   --> A              
     e(  4 -  4) =     -8.98640  eV     1   --> A              
     e(  5 -  5) =     -1.58594  eV     1   --> A              
     e(  6 -  6) =     -1.25582  eV     1   --> A              
     e(  7 -  7) =      0.16524  eV     1   --> A              
     e(  8 -  8) =      0.43473  eV     1   --> A              
     e(  9 -  9) =      0.44356  eV     1   --> A              
     e( 10 - 10) =      0.44734  eV     1   --> A              
     e( 11 - 11) =      0.45515  eV     1   --> A              
     e( 12 - 12) =      1.07352  eV     1   --> A              
     e( 13 - 13) =      2.76361  eV     1   --> A              
     e( 14 - 14) =      3.82147  eV     1   --> A              
     e( 15 - 15) =      4.80534  eV     1   --> A              
     e( 16 - 16) =      4.81459  eV     1   --> A              
     e( 17 - 17) =      4.82880  eV     1   --> A              
     e( 18 - 18) =      4.83772  eV     1   --> A              
     e( 19 - 19) =      6.17203  eV     1   --> A              
     e( 20 - 20) =      7.07808  eV     1   --> A              
     e( 21 - 21) =     10.05686  eV     1   --> A              
     e( 22 - 22) =     11.24961  eV     1   --> A              
     e( 23 - 23) =     11.38787  eV     1   --> A              
     e( 24 - 24) =     11.78935  eV     1   --> A              
     e( 25 - 25) =     12.31124  eV     1   --> A              

 **************************************************************************

 **************************************************************************

                    xk=(   0.03850,   0.02217,   0.00000  )

     Band symmetry, C_1 (1)     point group:

     e(  1 -  1) =    -14.50471  eV     1   --> A              
     e(  2 -  2) =    -14.49984  eV     1   --> A              
     e(  3 -  3) =     -8.98304  eV     1   --> A              
     e(  4 -  4) =     -8.97189  eV     1   --> A              
     e(  5 -  5) =     -1.57256  eV     1   --> A              
     e(  6 -  6) =     -1.24594  eV     1   --> A              
     e(  7 -  7) =      0.17667  eV     1   --> A              
     e(  8 -  8) =      0.38531  eV     1   --> A              
     e(  9 -  9) =      0.40317  eV     1   --> A              
     e( 10 - 10) =      0.44088  eV     1   --> A              
     e( 11 - 11) =      0.44870  eV     1   --> A              
     e( 12 - 12) =      1.08533  eV     1   --> A              
     e( 13 - 13) =      2.79592  eV     1   --> A              
     e( 14 - 14) =      3.84134  eV     1   --> A              
     e( 15 - 15) =      4.70610  eV     1   --> A              
     e( 16 - 16) =      4.71728  eV     1   --> A              
     e( 17 - 17) =      4.80564  eV     1   --> A              
     e( 18 - 18) =      4.81456  eV     1   --> A              
     e( 19 - 19) =      6.21559  eV     1   --> A              
     e( 20 - 20) =      7.11331  eV     1   --> A              
     e( 21 - 21) =     10.06663  eV     1   --> A              
     e( 22 - 22) =     11.32098  eV     1   --> A              
     e( 23 - 23) =     11.45592  eV     1   --> A              
     e( 24 - 24) =     11.76874  eV     1   --> A              
     e( 25 - 25) =     12.23565  eV     1   --> A              

 **************************************************************************

 **************************************************************************

                    xk=(   0.05775,   0.03325,   0.00000  )

     Band symmetry, C_1 (1)     point group:

     e(  1 -  1) =    -14.49566  eV     1   --> A              
     e(  2 -  2) =    -14.49079  eV     1   --> A              
     e(  3 -  3) =     -8.95889  eV     1   --> A              
     e(  4 -  4) =     -8.94776  eV     1   --> A              
     e(  5 -  5) =     -1.55057  eV     1   --> A              
     e(  6 -  6) =     -1.23020  eV     1   --> A              
     e(  7 -  7) =      0.19552  eV     1   --> A              
     e(  8 -  8) =      0.30626  eV     1   --> A              
     e(  9 -  9) =      0.34107  eV     1   --> A              
     e( 10 - 10) =      0.43033  eV     1   --> A              
     e( 11 - 11) =      0.43814  eV     1   --> A              
     e( 12 - 12) =      1.10385  eV     1   --> A              
     e( 13 - 13) =      2.84604  eV     1   --> A              
     e( 14 - 14) =      3.87133  eV     1   --> A              
     e( 15 - 15) =      4.55000  eV     1   --> A              
     e( 16 - 16) =      4.56417  eV     1   --> A              
     e( 17 - 17) =      4.76779  eV     1   --> A              
     e( 18 - 18) =      4.77671  eV     1   --> A              
     e( 19 - 19) =      6.28489  eV     1   --> A              
     e( 20 - 20) =      7.17068  eV     1   --> A              
     e( 21 - 21) =     10.07866  eV     1   --> A              
     e( 22 - 22) =     11.41547  eV     1   --> A              
     e( 23 - 23) =     11.55453  eV     1   --> A              
     e( 24 - 24) =     11.73346  eV     1   --> A              
     e( 25 - 25) =     12.11572  eV     1   --> A              

 **************************************************************************

 **************************************************************************

                    xk=(   0.07701,   0.04434,   0.00000  )

     Band symmetry, C_1 (1)     point group:

     e(  1 -  1) =    -14.48314  eV     1   --> A              
     e(  2 -  2) =    -14.47827  eV     1   --> A              
     e(  3 -  3) =     -8.92523  eV     1   --> A              
     e(  4 -  4) =     -8.91413  eV     1   --> A              
     e(  5 -  5) =     -1.52054  eV     1   --> A              
     e(  6 -  6) =     -1.20983  eV     1   --> A              
     e(  7 -  7) =      0.20434  eV     1   --> A              
     e(  8 -  8) =      0.22075  eV     1   --> A              
     e(  9 -  9) =      0.26264  eV     1   --> A              
     e( 10 - 10) =      0.41545  eV     1   --> A              
     e( 11 - 11) =      0.42324  eV     1   --> A              
     e( 12 - 12) =      1.12815  eV     1   --> A              
     e( 13 - 13) =      2.90929  eV     1   --> A              
     e( 14 - 14) =      3.90523  eV     1   --> A              
     e( 15 - 15) =      4.35232  eV     1   --> A              
     e( 16 - 16) =      4.36683  eV     1   --> A              
     e( 17 - 17) =      4.71447  eV     1   --> A              
     e( 18 - 18) =      4.72339  eV     1   --> A              
     e( 19 - 19) =      6.37711  eV     1   --> A              
     e( 20 - 20) =      7.24841  eV     1   --> A              
     e( 21 - 21) =     10.08899  eV     1   --> A              
     e( 22 - 22) =     11.47786  eV     1   --> A              
     e( 23 - 23) =     11.65136  eV     1   --> A              
     e( 24 - 24) =     11.70074  eV     1   --> A              
     e( 25 - 25) =     11.98556  eV     1   --> A              

 **************************************************************************

 **************************************************************************

                    xk=(   0.09626,   0.05542,   0.00000  )

     Band symmetry, C_1 (1)     point group:

     e(  1 -  1) =    -14.46728  eV     1   --> A              
     e(  2 -  2) =    -14.46242  eV     1   --> A              
     e(  3 -  3) =     -8.88221  eV     1   --> A              
     e(  4 -  4) =     -8.87114  eV     1   --> A              
     e(  5 -  5) =     -1.48339  eV     1   --> A              
     e(  6 -  6) =     -1.18681  eV     1   --> A              
     e(  7 -  7) =      0.08714  eV     1   --> A              
     e(  8 -  8) =      0.16774  eV     1   --> A              
     e(  9 -  9) =      0.25734  eV     1   --> A              
     e( 10 - 10) =      0.39605  eV     1   --> A              
     e( 11 - 11) =      0.40381  eV     1   --> A              
     e( 12 - 12) =      1.15756  eV     1   --> A              
     e( 13 - 13) =      2.97995  eV     1   --> A              
     e( 14 - 14) =      3.91740  eV     1   --> A              
     e( 15 - 15) =      4.13447  eV     1   --> A              
     e( 16 - 16) =      4.15058  eV     1   --> A              
     e( 17 - 17) =      4.64533  eV     1   --> A              
     e( 18 - 18) =      4.65425  eV     1   --> A              
     e( 19 - 19) =      6.49003  eV     1   --> A              
     e( 20 - 20) =      7.34431  eV     1   --> A              
     e( 21 - 21) =     10.09460  eV     1   --> A              
     e( 22 - 22) =     11.42033  eV     1   --> A              
     e( 23 - 23) =     11.64350  eV     1   --> A              
     e( 24 - 24) =     11.70412  eV     1   --> A              
     e( 25 - 25) =     11.93828  eV     1   --> A              

 **************************************************************************

 **************************************************************************

                    xk=(   0.11551,   0.06651,   0.00000  )

     Band symmetry, C_1 (1)     point group:

     e(  1 -  1) =    -14.44827  eV     1   --> A              
     e(  2 -  2) =    -14.44342  eV     1   --> A              
     e(  3 -  3) =     -8.83003  eV     1   --> A              
     e(  4 -  4) =     -8.81901  eV     1   --> A              
     e(  5 -  5) =     -1.44063  eV     1   --> A              
     e(  6 -  6) =     -1.16430  eV     1   --> A              
     e(  7 -  7) =     -0.03955  eV     1   --> A              
     e(  8 -  8) =      0.07200  eV     1   --> A              
     e(  9 -  9) =      0.29733  eV     1   --> A              
     e( 10 - 10) =      0.37200  eV     1   --> A              
     e( 11 - 11) =      0.37973  eV     1   --> A              
     e( 12 - 12) =      1.19156  eV     1   --> A              
     e( 13 - 13) =      3.04976  eV     1   --> A              
     e( 14 - 14) =      3.77856  eV     1   --> A              
     e( 15 - 15) =      3.88918  eV     1   --> A              
     e( 16 - 16) =      4.07425  eV     1   --> A              
     e( 17 - 17) =      4.56007  eV     1   --> A              
     e( 18 - 18) =      4.56899  eV     1   --> A              
     e( 19 - 19) =      6.62178  eV     1   --> A              
     e( 20 - 20) =      7.45584  eV     1   --> A              
     e( 21 - 21) =     10.09329  eV     1   --> A              
     e( 22 - 22) =     11.26855  eV     1   --> A              
     e( 23 - 23) =     11.48564  eV     1   --> A              
     e( 24 - 24) =     11.67248  eV     1   --> A              
     e( 25 - 25) =     12.02018  eV     1   --> A              

 **************************************************************************

 **************************************************************************

                    xk=(   0.13476,   0.07759,   0.00000  )

     Band symmetry, C_1 (1)     point group:

     e(  1 -  1) =    -14.42634  eV     1   --> A              
     e(  2 -  2) =    -14.42150  eV     1   --> A              
     e(  3 -  3) =     -8.76895  eV     1   --> A              
     e(  4 -  4) =     -8.75798  eV     1   --> A              
     e(  5 -  5) =     -1.39472  eV     1   --> A              
     e(  6 -  6) =     -1.14697  eV     1   --> A              
     e(  7 -  7) =     -0.16877  eV     1   --> A              
     e(  8 -  8) =     -0.02027  eV     1   --> A              
     e(  9 -  9) =      0.34050  eV     1   --> A              
     e( 10 - 10) =      0.34569  eV     1   --> A              
     e( 11 - 11) =      0.35200  eV     1   --> A              
     e( 12 - 12) =      1.22954  eV     1   --> A              
     e( 13 - 13) =      3.09912  eV     1   --> A              
     e( 14 - 14) =      3.51795  eV     1   --> A              
     e( 15 - 15) =      3.65114  eV     1   --> A              
     e( 16 - 16) =      4.10591  eV     1   --> A              
     e( 17 - 17) =      4.45860  eV     1   --> A              
     e( 18 - 18) =      4.46750  eV     1   --> A              
     e( 19 - 19) =      6.77055  eV     1   --> A              
     e( 20 - 20) =      7.58015  eV     1   --> A              
     e( 21 - 21) =     10.08292  eV     1   --> A              
     e( 22 - 22) =     11.07229  eV     1   --> A              
     e( 23 - 23) =     11.28341  eV     1   --> A              
     e( 24 - 24) =     11.58578  eV     1   --> A              
     e( 25 - 25) =     12.09081  eV     1   --> A              

 **************************************************************************

 **************************************************************************

                    xk=(   0.15401,   0.08868,   0.00000  )

     Band symmetry, C_1 (1)     point group:

     e(  1 -  1) =    -14.40174  eV     1   --> A              
     e(  2 -  2) =    -14.39691  eV     1   --> A              
     e(  3 -  3) =     -8.69927  eV     1   --> A              
     e(  4 -  4) =     -8.68836  eV     1   --> A              
     e(  5 -  5) =     -1.34980  eV     1   --> A              
     e(  6 -  6) =     -1.14125  eV     1   --> A              
     e(  7 -  7) =     -0.29283  eV     1   --> A              
     e(  8 -  8) =     -0.09899  eV     1   --> A              
     e(  9 -  9) =      0.30875  eV     1   --> A              
     e( 10 - 10) =      0.31640  eV     1   --> A              
     e( 11 - 11) =      0.39818  eV     1   --> A              
     e( 12 - 12) =      1.27068  eV     1   --> A              
     e( 13 - 13) =      3.06280  eV     1   --> A              
     e( 14 - 14) =      3.23196  eV     1   --> A              
     e( 15 - 15) =      3.49242  eV     1   --> A              
     e( 16 - 16) =      4.15302  eV     1   --> A              
     e( 17 - 17) =      4.34119  eV     1   --> A              
     e( 18 - 18) =      4.35003  eV     1   --> A              
     e( 19 - 19) =      6.93452  eV     1   --> A              
     e( 20 - 20) =      7.71410  eV     1   --> A              
     e( 21 - 21) =     10.06059  eV     1   --> A              
     e( 22 - 22) =     10.85144  eV     1   --> A              
     e( 23 - 23) =     11.07100  eV     1   --> A              
     e( 24 - 24) =     11.46832  eV     1   --> A              
     e( 25 - 25) =     12.14662  eV     1   --> A              

 **************************************************************************

 **************************************************************************

                    xk=(   0.17326,   0.09976,   0.00000  )

     Band symmetry, C_1 (1)     point group:

     e(  1 -  1) =    -14.37478  eV     1   --> A              
     e(  2 -  2) =    -14.36995  eV     1   --> A              
     e(  3 -  3) =     -8.62138  eV     1   --> A              
     e(  4 -  4) =     -8.61053  eV     1   --> A              
     e(  5 -  5) =     -1.31280  eV     1   --> A              
     e(  6 -  6) =     -1.15438  eV     1   --> A              
     e(  7 -  7) =     -0.40211  eV     1   --> A              
     e(  8 -  8) =     -0.15406  eV     1   --> A              
     e(  9 -  9) =      0.26944  eV     1   --> A              
     e( 10 - 10) =      0.27705  eV     1   --> A              
     e( 11 - 11) =      0.45690  eV     1   --> A              
     e( 12 - 12) =      1.31352  eV     1   --> A              
     e( 13 - 13) =      2.87749  eV     1   --> A              
     e( 14 - 14) =      2.93898  eV     1   --> A              
     e( 15 - 15) =      3.48171  eV     1   --> A              
     e( 16 - 16) =      4.18829  eV     1   --> A              
     e( 17 - 17) =      4.21171  eV     1   --> A              
     e( 18 - 18) =      4.22711  eV     1   --> A              
     e( 19 - 19) =      7.11181  eV     1   --> A              
     e( 20 - 20) =      7.85414  eV     1   --> A              
     e( 21 - 21) =     10.02140  eV     1   --> A              
     e( 22 - 22) =     10.61549  eV     1   --> A              
     e( 23 - 23) =     10.86133  eV     1   --> A              
     e( 24 - 24) =     11.32994  eV     1   --> A              
     e( 25 - 25) =     12.16247  eV     1   --> A              

 **************************************************************************

 **************************************************************************

                    xk=(   0.19251,   0.11085,   0.00000  )

     Band symmetry, C_1 (1)     point group:

     e(  1 -  1) =    -14.34576  eV     1   --> A              
     e(  2 -  2) =    -14.34095  eV     1   --> A              
     e(  3 -  3) =     -8.53573  eV     1   --> A              
     e(  4 -  4) =     -8.52494  eV     1   --> A              
     e(  5 -  5) =     -1.29429  eV     1   --> A              
     e(  6 -  6) =     -1.19160  eV     1   --> A              
     e(  7 -  7) =     -0.48383  eV     1   --> A              
     e(  8 -  8) =     -0.17814  eV     1   --> A              
     e(  9 -  9) =      0.22458  eV     1   --> A              
     e( 10 - 10) =      0.23216  eV     1   --> A              
     e( 11 - 11) =      0.52031  eV     1   --> A              
     e( 12 - 12) =      1.35543  eV     1   --> A              
     e( 13 - 13) =      2.62525  eV     1   --> A              
     e( 14 - 14) =      2.64709  eV     1   --> A              
     e( 15 - 15) =      3.54250  eV     1   --> A              
     e( 16 - 16) =      4.05605  eV     1   --> A              
     e( 17 - 17) =      4.06604  eV     1   --> A              
     e( 18 - 18) =      4.25666  eV     1   --> A              
     e( 19 - 19) =      7.30062  eV     1   --> A              
     e( 20 - 20) =      7.99634  eV     1   --> A              
     e( 21 - 21) =      9.95724  eV     1   --> A              
     e( 22 - 22) =     10.37000  eV     1   --> A              
     e( 23 - 23) =     10.66634  eV     1   --> A              
     e( 24 - 24) =     11.17436  eV     1   --> A              
     e( 25 - 25) =     12.03237  eV     1   --> A              

 **************************************************************************

 **************************************************************************

                    xk=(   0.21177,   0.12193,   0.00000  )

     Band symmetry, C_1 (1)     point group:

     e(  1 -  1) =    -14.31506  eV     1   --> A              
     e(  2 -  2) =    -14.31025  eV     1   --> A              
     e(  3 -  3) =     -8.44285  eV     1   --> A              
     e(  4 -  4) =     -8.43212  eV     1   --> A              
     e(  5 -  5) =     -1.30599  eV     1   --> A              
     e(  6 -  6) =     -1.25295  eV     1   --> A              
     e(  7 -  7) =     -0.52464  eV     1   --> A              
     e(  8 -  8) =     -0.16980  eV     1   --> A              
     e(  9 -  9) =      0.17409  eV     1   --> A              
     e( 10 - 10) =      0.18162  eV     1   --> A              
     e( 11 - 11) =      0.58706  eV     1   --> A              
     e( 12 - 12) =      1.39082  eV     1   --> A              
     e( 13 - 13) =      2.35831  eV     1   --> A              
     e( 14 - 14) =      2.37043  eV     1   --> A              
     e( 15 - 15) =      3.62229  eV     1   --> A              
     e( 16 - 16) =      3.89343  eV     1   --> A              
     e( 17 - 17) =      3.90352  eV     1   --> A              
     e( 18 - 18) =      4.30313  eV     1   --> A              
     e( 19 - 19) =      7.49925  eV     1   --> A              
     e( 20 - 20) =      8.13612  eV     1   --> A              
     e( 21 - 21) =      9.85708  eV     1   --> A              
     e( 22 - 22) =     10.11886  eV     1   --> A              
     e( 23 - 23) =     10.49996  eV     1   --> A              
     e( 24 - 24) =     11.00358  eV     1   --> A              
     e( 25 - 25) =     11.81202  eV     1   --> A              

 **************************************************************************

 **************************************************************************

                    xk=(   0.23102,   0.13302,   0.00000  )

     Band symmetry, C_1 (1)     point group:

     e(  1 -  1) =    -14.28305  eV     1   --> A              
     e(  2 -  2) =    -14.27826  eV     1   --> A              
     e(  3 -  3) =     -8.34337  eV     1   --> A              
     e(  4 -  4) =     -8.33271  eV     1   --> A              
     e(  5 -  5) =     -1.35266  eV     1   --> A              
     e(  6 -  6) =     -1.33310  eV     1   --> A              
     e(  7 -  7) =     -0.51899  eV     1   --> A              
     e(  8 -  8) =     -0.13381  eV     1   --> A              
     e(  9 -  9) =      0.11783  eV     1   --> A              
     e( 10 - 10) =      0.12532  eV     1   --> A              
     e( 11 - 11) =      0.65498  eV     1   --> A              
     e( 12 - 12) =      1.40630  eV     1   --> A              
     e( 13 - 13) =      2.08692  eV     1   --> A              
     e( 14 - 14) =      2.13473  eV     1   --> A              
     e( 15 - 15) =      3.69416  eV     1   --> A              
     e( 16 - 16) =      3.71930  eV     1   --> A              
     e( 17 - 17) =      3.73909  eV     1   --> A              
     e( 18 - 18) =      4.34714  eV     1   --> A              
     e( 19 - 19) =      7.70616  eV     1   --> A              
     e( 20 - 20) =      8.26807  eV     1   --> A              
     e( 21 - 21) =      9.71406  eV     1   --> A              
     e( 22 - 22) =      9.86513  eV     1   --> A              
     e( 23 - 23) =     10.37246  eV     1   --> A              
     e( 24 - 24) =     10.81963  eV     1   --> A              
     e( 25 - 25) =     11.64068  eV     1   --> A              

 **************************************************************************

 **************************************************************************

                    xk=(   0.25027,   0.14410,   0.00000  )

     Band symmetry, C_1 (1)     point group:

     e(  1 -  1) =    -14.25014  eV     1   --> A              
     e(  2 -  2) =    -14.24535  eV     1   --> A              
     e(  3 -  3) =     -8.23802  eV     1   --> A              
     e(  4 -  4) =     -8.22742  eV     1   --> A              
     e(  5 -  5) =     -1.42813  eV     1   --> A              
     e(  6 -  6) =     -1.42341  eV     1   --> A              
     e(  7 -  7) =     -0.47382  eV     1   --> A              
     e(  8 -  8) =     -0.07851  eV     1   --> A              
     e(  9 -  9) =      0.05585  eV     1   --> A              
     e( 10 - 10) =      0.06331  eV     1   --> A              
     e( 11 - 11) =      0.72004  eV     1   --> A              
     e( 12 - 12) =      1.37145  eV     1   --> A              
     e( 13 - 13) =      1.83541  eV     1   --> A              
     e( 14 - 14) =      1.96130  eV     1   --> A              
     e( 15 - 15) =      3.52823  eV     1   --> A              
     e( 16 - 16) =      3.53729  eV     1   --> A              
     e( 17 - 17) =      3.79756  eV     1   --> A              
     e( 18 - 18) =      4.38754  eV     1   --> A              
     e( 19 - 19) =      7.91997  eV     1   --> A              
     e( 20 - 20) =      8.38563  eV     1   --> A              
     e( 21 - 21) =      9.53456  eV     1   --> A              
     e( 22 - 22) =      9.61140  eV     1   --> A              
     e( 23 - 23) =     10.28240  eV     1   --> A              
     e( 24 - 24) =     10.62598  eV     1   --> A              
     e( 25 - 25) =     11.44458  eV     1   --> A              

 **************************************************************************

 **************************************************************************

                    xk=(   0.26952,   0.15519,   0.00000  )

     Band symmetry, C_1 (1)     point group:

     e(  1 -  1) =    -14.21674  eV     1   --> A              
     e(  2 -  2) =    -14.21196  eV     1   --> A              
     e(  3 -  3) =     -8.12766  eV     1   --> A              
     e(  4 -  4) =     -8.11712  eV     1   --> A              
     e(  5 -  5) =     -1.52232  eV     1   --> A              
     e(  6 -  6) =     -1.51456  eV     1   --> A              
     e(  7 -  7) =     -0.40215  eV     1   --> A              
     e(  8 -  8) =     -0.02191  eV     1   --> A              
     e(  9 -  9) =     -0.00924  eV     1   --> A              
     e( 10 - 10) =      0.00155  eV     1   --> A              
     e( 11 - 11) =      0.77410  eV     1   --> A              
     e( 12 - 12) =      1.25429  eV     1   --> A              
     e( 13 - 13) =      1.61840  eV     1   --> A              
     e( 14 - 14) =      1.88574  eV     1   --> A              
     e( 15 - 15) =      3.33083  eV     1   --> A              
     e( 16 - 16) =      3.34033  eV     1   --> A              
     e( 17 - 17) =      3.88056  eV     1   --> A              
     e( 18 - 18) =      4.42364  eV     1   --> A              
     e( 19 - 19) =      8.13942  eV     1   --> A              
     e( 20 - 20) =      8.48076  eV     1   --> A              
     e( 21 - 21) =      9.33409  eV     1   --> A              
     e( 22 - 22) =      9.35994  eV     1   --> A              
     e( 23 - 23) =     10.22172  eV     1   --> A              
     e( 24 - 24) =     10.42806  eV     1   --> A              
     e( 25 - 25) =     11.31031  eV     1   --> A              

 **************************************************************************

 **************************************************************************

                    xk=(   0.28877,   0.16627,   0.00000  )

     Band symmetry, C_1 (1)     point group:

     e(  1 -  1) =    -14.18328  eV     1   --> A              
     e(  2 -  2) =    -14.17852  eV     1   --> A              
     e(  3 -  3) =     -8.01327  eV     1   --> A              
     e(  4 -  4) =     -8.00279  eV     1   --> A              
     e(  5 -  5) =     -1.61780  eV     1   --> A              
     e(  6 -  6) =     -1.60834  eV     1   --> A              
     e(  7 -  7) =     -0.31629  eV     1   --> A              
     e(  8 -  8) =     -0.08669  eV     1   --> A              
     e(  9 -  9) =     -0.07936  eV     1   --> A              
     e( 10 - 10) =      0.05329  eV     1   --> A              
     e( 11 - 11) =      0.80164  eV     1   --> A              
     e( 12 - 12) =      1.07812  eV     1   --> A              
     e( 13 - 13) =      1.45973  eV     1   --> A              
     e( 14 - 14) =      1.88926  eV     1   --> A              
     e( 15 - 15) =      3.12524  eV     1   --> A              
     e( 16 - 16) =      3.13512  eV     1   --> A              
     e( 17 - 17) =      3.95993  eV     1   --> A              
     e( 18 - 18) =      4.45479  eV     1   --> A              
     e( 19 - 19) =      8.36319  eV     1   --> A              
     e( 20 - 20) =      8.54291  eV     1   --> A              
     e( 21 - 21) =      9.11146  eV     1   --> A              
     e( 22 - 22) =      9.13067  eV     1   --> A              
     e( 23 - 23) =     10.18507  eV     1   --> A              
     e( 24 - 24) =     10.23254  eV     1   --> A              
     e( 25 - 25) =     11.16493  eV     1   --> A              

 **************************************************************************

 **************************************************************************

                    xk=(   0.30802,   0.17736,   0.00000  )

     Band symmetry, C_1 (1)     point group:

     e(  1 -  1) =    -14.15019  eV     1   --> A              
     e(  2 -  2) =    -14.14544  eV     1   --> A              
     e(  3 -  3) =     -7.89599  eV     1   --> A              
     e(  4 -  4) =     -7.88557  eV     1   --> A              
     e(  5 -  5) =     -1.70870  eV     1   --> A              
     e(  6 -  6) =     -1.69966  eV     1   --> A              
     e(  7 -  7) =     -0.22868  eV     1   --> A              
     e(  8 -  8) =     -0.16506  eV     1   --> A              
     e(  9 -  9) =     -0.15768  eV     1   --> A              
     e( 10 - 10) =      0.09901  eV     1   --> A              
     e( 11 - 11) =      0.78867  eV     1   --> A              
     e( 12 - 12) =      0.88980  eV     1   --> A              
     e( 13 - 13) =      1.38768  eV     1   --> A              
     e( 14 - 14) =      1.93133  eV     1   --> A              
     e( 15 - 15) =      2.91350  eV     1   --> A              
     e( 16 - 16) =      2.92387  eV     1   --> A              
     e( 17 - 17) =      4.03364  eV     1   --> A              
     e( 18 - 18) =      4.48046  eV     1   --> A              
     e( 19 - 19) =      8.55357  eV     1   --> A              
     e( 20 - 20) =      8.58961  eV     1   --> A              
     e( 21 - 21) =      8.86974  eV     1   --> A              
     e( 22 - 22) =      8.94538  eV     1   --> A              
     e( 23 - 23) =     10.04556  eV     1   --> A              
     e( 24 - 24) =     10.17108  eV     1   --> A              
     e( 25 - 25) =     11.01845  eV     1   --> A              

 **************************************************************************

 **************************************************************************

                    xk=(   0.32728,   0.18844,   0.00000  )

     Band symmetry, C_1 (1)     point group:

     e(  1 -  1) =    -14.11788  eV     1   --> A              
     e(  2 -  2) =    -14.11314  eV     1   --> A              
     e(  3 -  3) =     -7.77712  eV     1   --> A              
     e(  4 -  4) =     -7.76674  eV     1   --> A              
     e(  5 -  5) =     -1.79206  eV     1   --> A              
     e(  6 -  6) =     -1.78428  eV     1   --> A              
     e(  7 -  7) =     -0.25183  eV     1   --> A              
     e(  8 -  8) =     -0.24425  eV     1   --> A              
     e(  9 -  9) =     -0.14579  eV     1   --> A              
     e( 10 - 10) =      0.10351  eV     1   --> A              
     e( 11 - 11) =      0.72047  eV     1   --> A              
     e( 12 - 12) =      0.75875  eV     1   --> A              
     e( 13 - 13) =      1.40062  eV     1   --> A              
     e( 14 - 14) =      1.99103  eV     1   --> A              
     e( 15 - 15) =      2.69752  eV     1   --> A              
     e( 16 - 16) =      2.70860  eV     1   --> A              
     e( 17 - 17) =      4.10012  eV     1   --> A              
     e( 18 - 18) =      4.50015  eV     1   --> A              
     e( 19 - 19) =      8.47764  eV     1   --> A              
     e( 20 - 20) =      8.63142  eV     1   --> A              
     e( 21 - 21) =      8.81882  eV     1   --> A              
     e( 22 - 22) =      8.82207  eV     1   --> A              
     e( 23 - 23) =      9.87455  eV     1   --> A              
     e( 24 - 24) =     10.17603  eV     1   --> A              
     e( 25 - 25) =     10.87810  eV     1   --> A              

 **************************************************************************

 **************************************************************************

                    xk=(   0.34653,   0.19953,   0.00000  )

     Band symmetry, C_1 (1)     point group:

     e(  1 -  1) =    -14.08676  eV     1   --> A              
     e(  2 -  2) =    -14.08204  eV     1   --> A              
     e(  3 -  3) =     -7.65811  eV     1   --> A              
     e(  4 -  4) =     -7.64776  eV     1   --> A              
     e(  5 -  5) =     -1.86584  eV     1   --> A              
     e(  6 -  6) =     -1.85924  eV     1   --> A              
     e(  7 -  7) =     -0.34096  eV     1   --> A              
     e(  8 -  8) =     -0.33354  eV     1   --> A              
     e(  9 -  9) =     -0.09933  eV     1   --> A              
     e( 10 - 10) =      0.05057  eV     1   --> A              
     e( 11 - 11) =      0.59826  eV     1   --> A              
     e( 12 - 12) =      0.75757  eV     1   --> A              
     e( 13 - 13) =      1.46671  eV     1   --> A              
     e( 14 - 14) =      2.05960  eV     1   --> A              
     e( 15 - 15) =      2.47923  eV     1   --> A              
     e( 16 - 16) =      2.49161  eV     1   --> A              
     e( 17 - 17) =      4.15815  eV     1   --> A              
     e( 18 - 18) =      4.51352  eV     1   --> A              
     e( 19 - 19) =      8.31564  eV     1   --> A              
     e( 20 - 20) =      8.40375  eV     1   --> A              
     e( 21 - 21) =      8.76589  eV     1   --> A              
     e( 22 - 22) =      9.04463  eV     1   --> A              
     e( 23 - 23) =      9.72676  eV     1   --> A              
     e( 24 - 24) =     10.19389  eV     1   --> A              
     e( 25 - 25) =     10.74352  eV     1   --> A              

 **************************************************************************

 **************************************************************************

                    xk=(   0.36578,   0.21061,   0.00000  )

     Band symmetry, C_1 (1)     point group:

     e(  1 -  1) =    -14.05722  eV     1   --> A              
     e(  2 -  2) =    -14.05250  eV     1   --> A              
     e(  3 -  3) =     -7.54058  eV     1   --> A              
     e(  4 -  4) =     -7.53027  eV     1   --> A              
     e(  5 -  5) =     -1.92864  eV     1   --> A              
     e(  6 -  6) =     -1.92241  eV     1   --> A              
     e(  7 -  7) =     -0.43501  eV     1   --> A              
     e(  8 -  8) =     -0.42759  eV     1   --> A              
     e(  9 -  9) =     -0.10812  eV     1   --> A              
     e( 10 - 10) =     -0.04652  eV     1   --> A              
     e( 11 - 11) =      0.54918  eV     1   --> A              
     e( 12 - 12) =      0.79576  eV     1   --> A              
     e( 13 - 13) =      1.56099  eV     1   --> A              
     e( 14 - 14) =      2.12888  eV     1   --> A              
     e( 15 - 15) =      2.26080  eV     1   --> A              
     e( 16 - 16) =      2.27889  eV     1   --> A              
     e( 17 - 17) =      4.20686  eV     1   --> A              
     e( 18 - 18) =      4.52049  eV     1   --> A              
     e( 19 - 19) =      8.11911  eV     1   --> A              
     e( 20 - 20) =      8.18365  eV     1   --> A              
     e( 21 - 21) =      8.74070  eV     1   --> A              
     e( 22 - 22) =      9.25322  eV     1   --> A              
     e( 23 - 23) =      9.61904  eV     1   --> A              
     e( 24 - 24) =     10.21571  eV     1   --> A              
     e( 25 - 25) =     10.61468  eV     1   --> A              

 **************************************************************************

 **************************************************************************

                    xk=(   0.38503,   0.22170,   0.00000  )

     Band symmetry, C_1 (1)     point group:

     e(  1 -  1) =    -14.02960  eV     1   --> A              
     e(  2 -  2) =    -14.02489  eV     1   --> A              
     e(  3 -  3) =     -7.42629  eV     1   --> A              
     e(  4 -  4) =     -7.41601  eV     1   --> A              
     e(  5 -  5) =     -1.97930  eV     1   --> A              
     e(  6 -  6) =     -1.97242  eV     1   --> A              
     e(  7 -  7) =     -0.53305  eV     1   --> A              
     e(  8 -  8) =     -0.52557  eV     1   --> A              
     e(  9 -  9) =     -0.17222  eV     1   --> A              
     e( 10 - 10) =     -0.15936  eV     1   --> A              
     e( 11 - 11) =      0.57233  eV     1   --> A              
     e( 12 - 12) =      0.85657  eV     1   --> A              
     e( 13 - 13) =      1.67053  eV     1   --> A              
     e( 14 - 14) =      2.03913  eV     1   --> A              
     e( 15 - 15) =      2.04781  eV     1   --> A              
     e( 16 - 16) =      2.22672  eV     1   --> A              
     e( 17 - 17) =      4.24597  eV     1   --> A              
     e( 18 - 18) =      4.52135  eV     1   --> A              
     e( 19 - 19) =      7.91570  eV     1   --> A              
     e( 20 - 20) =      7.97275  eV     1   --> A              
     e( 21 - 21) =      8.72903  eV     1   --> A              
     e( 22 - 22) =      9.36683  eV     1   --> A              
     e( 23 - 23) =      9.63117  eV     1   --> A              
     e( 24 - 24) =     10.23275  eV     1   --> A              
     e( 25 - 25) =     10.49194  eV     1   --> A              

 **************************************************************************

 **************************************************************************

                    xk=(   0.40428,   0.23278,   0.00000  )

     Band symmetry, C_1 (1)     point group:

     e(  1 -  1) =    -14.00420  eV     1   --> A              
     e(  2 -  2) =    -13.99950  eV     1   --> A              
     e(  3 -  3) =     -7.31713  eV     1   --> A              
     e(  4 -  4) =     -7.30686  eV     1   --> A              
     e(  5 -  5) =     -2.01685  eV     1   --> A              
     e(  6 -  6) =     -2.00851  eV     1   --> A              
     e(  7 -  7) =     -0.63436  eV     1   --> A              
     e(  8 -  8) =     -0.62675  eV     1   --> A              
     e(  9 -  9) =     -0.27297  eV     1   --> A              
     e( 10 - 10) =     -0.25642  eV     1   --> A              
     e( 11 - 11) =      0.63724  eV     1   --> A              
     e( 12 - 12) =      0.92479  eV     1   --> A              
     e( 13 - 13) =      1.77229  eV     1   --> A              
     e( 14 - 14) =      1.83147  eV     1   --> A              
     e( 15 - 15) =      1.84756  eV     1   --> A              
     e( 16 - 16) =      2.30497  eV     1   --> A              
     e( 17 - 17) =      4.27589  eV     1   --> A              
     e( 18 - 18) =      4.51688  eV     1   --> A              
     e( 19 - 19) =      7.71520  eV     1   --> A              
     e( 20 - 20) =      7.77219  eV     1   --> A              
     e( 21 - 21) =      8.73045  eV     1   --> A              
     e( 22 - 22) =      9.34229  eV     1   --> A              
     e( 23 - 23) =      9.80605  eV     1   --> A              
     e( 24 - 24) =     10.23847  eV     1   --> A              
     e( 25 - 25) =     10.37625  eV     1   --> A              

 **************************************************************************

 **************************************************************************

                    xk=(   0.42353,   0.24387,   0.00000  )

     Band symmetry, C_1 (1)     point group:

     e(  1 -  1) =    -13.98129  eV     1   --> A              
     e(  2 -  2) =    -13.97660  eV     1   --> A              
     e(  3 -  3) =     -7.21501  eV     1   --> A              
     e(  4 -  4) =     -7.20475  eV     1   --> A              
     e(  5 -  5) =     -2.04047  eV     1   --> A              
     e(  6 -  6) =     -2.03034  eV     1   --> A              
     e(  7 -  7) =     -0.73810  eV     1   --> A              
     e(  8 -  8) =     -0.73031  eV     1   --> A              
     e(  9 -  9) =     -0.36895  eV     1   --> A              
     e( 10 - 10) =     -0.34199  eV     1   --> A              
     e( 11 - 11) =      0.71746  eV     1   --> A              
     e( 12 - 12) =      0.99180  eV     1   --> A              
     e( 13 - 13) =      1.60735  eV     1   --> A              
     e( 14 - 14) =      1.62338  eV     1   --> A              
     e( 15 - 15) =      1.92336  eV     1   --> A              
     e( 16 - 16) =      2.38857  eV     1   --> A              
     e( 17 - 17) =      4.29789  eV     1   --> A              
     e( 18 - 18) =      4.50844  eV     1   --> A              
     e( 19 - 19) =      7.52234  eV     1   --> A              
     e( 20 - 20) =      7.58327  eV     1   --> A              
     e( 21 - 21) =      8.74693  eV     1   --> A              
     e( 22 - 22) =      9.30534  eV     1   --> A              
     e( 23 - 23) =     10.01440  eV     1   --> A              
     e( 24 - 24) =     10.22730  eV     1   --> A              
     e( 25 - 25) =     10.27213  eV     1   --> A              

 **************************************************************************

 **************************************************************************

                    xk=(   0.44278,   0.25495,   0.00000  )

     Band symmetry, C_1 (1)     point group:

     e(  1 -  1) =    -13.96106  eV     1   --> A              
     e(  2 -  2) =    -13.95637  eV     1   --> A              
     e(  3 -  3) =     -7.12181  eV     1   --> A              
     e(  4 -  4) =     -7.11155  eV     1   --> A              
     e(  5 -  5) =     -2.04970  eV     1   --> A              
     e(  6 -  6) =     -2.03780  eV     1   --> A              
     e(  7 -  7) =     -0.84336  eV     1   --> A              
     e(  8 -  8) =     -0.83535  eV     1   --> A              
     e(  9 -  9) =     -0.44438  eV     1   --> A              
     e( 10 - 10) =     -0.41183  eV     1   --> A              
     e( 11 - 11) =      0.79866  eV     1   --> A              
     e( 12 - 12) =      1.05308  eV     1   --> A              
     e( 13 - 13) =      1.40213  eV     1   --> A              
     e( 14 - 14) =      1.41819  eV     1   --> A              
     e( 15 - 15) =      2.04692  eV     1   --> A              
     e( 16 - 16) =      2.47258  eV     1   --> A              
     e( 17 - 17) =      4.31406  eV     1   --> A              
     e( 18 - 18) =      4.49797  eV     1   --> A              
     e( 19 - 19) =      7.34043  eV     1   --> A              
     e( 20 - 20) =      7.40759  eV     1   --> A              
     e( 21 - 21) =      8.77916  eV     1   --> A              
     e( 22 - 22) =      9.28926  eV     1   --> A              
     e( 23 - 23) =     10.14386  eV     1   --> A              
     e( 24 - 24) =     10.20555  eV     1   --> A              
     e( 25 - 25) =     10.24791  eV     1   --> A              

 **************************************************************************

 **************************************************************************

                    xk=(   0.46204,   0.26604,   0.00000  )

     Band symmetry, C_1 (1)     point group:

     e(  1 -  1) =    -13.94364  eV     1   --> A              
     e(  2 -  2) =    -13.93896  eV     1   --> A              
     e(  3 -  3) =     -7.03925  eV     1   --> A              
     e(  4 -  4) =     -7.02899  eV     1   --> A              
     e(  5 -  5) =     -2.04454  eV     1   --> A              
     e(  6 -  6) =     -2.03104  eV     1   --> A              
     e(  7 -  7) =     -0.94908  eV     1   --> A              
     e(  8 -  8) =     -0.94080  eV     1   --> A              
     e(  9 -  9) =     -0.49529  eV     1   --> A              
     e( 10 - 10) =     -0.45960  eV     1   --> A              
     e( 11 - 11) =      0.87337  eV     1   --> A              
     e( 12 - 12) =      1.10640  eV     1   --> A              
     e( 13 - 13) =      1.20277  eV     1   --> A              
     e( 14 - 14) =      1.21991  eV     1   --> A              
     e( 15 - 15) =      2.16683  eV     1   --> A              
     e( 16 - 16) =      2.55404  eV     1   --> A              
     e( 17 - 17) =      4.32704  eV     1   --> A              
     e( 18 - 18) =      4.48783  eV     1   --> A              
     e( 19 - 19) =      7.17250  eV     1   --> A              
     e( 20 - 20) =      7.24710  eV     1   --> A              
     e( 21 - 21) =      8.82559  eV     1   --> A              
     e( 22 - 22) =      9.29819  eV     1   --> A              
     e( 23 - 23) =     10.06373  eV     1   --> A              
     e( 24 - 24) =     10.17102  eV     1   --> A              
     e( 25 - 25) =     10.42674  eV     1   --> A              

 **************************************************************************

 **************************************************************************

                    xk=(   0.48129,   0.27712,   0.00000  )

     Band symmetry, C_1 (1)     point group:

     e(  1 -  1) =    -13.92912  eV     1   --> A              
     e(  2 -  2) =    -13.92445  eV     1   --> A              
     e(  3 -  3) =     -6.96876  eV     1   --> A              
     e(  4 -  4) =     -6.95851  eV     1   --> A              
     e(  5 -  5) =     -2.02546  eV     1   --> A              
     e(  6 -  6) =     -2.01058  eV     1   --> A              
     e(  7 -  7) =     -1.05400  eV     1   --> A              
     e(  8 -  8) =     -1.04541  eV     1   --> A              
     e(  9 -  9) =     -0.51985  eV     1   --> A              
     e( 10 - 10) =     -0.48235  eV     1   --> A              
     e( 11 - 11) =      0.93676  eV     1   --> A              
     e( 12 - 12) =      1.01220  eV     1   --> A              
     e( 13 - 13) =      1.03145  eV     1   --> A              
     e( 14 - 14) =      1.15080  eV     1   --> A              
     e( 15 - 15) =      2.27680  eV     1   --> A              
     e( 16 - 16) =      2.62955  eV     1   --> A              
     e( 17 - 17) =      4.33958  eV     1   --> A              
     e( 18 - 18) =      4.48047  eV     1   --> A              
     e( 19 - 19) =      7.02178  eV     1   --> A              
     e( 20 - 20) =      7.10420  eV     1   --> A              
     e( 21 - 21) =      8.88219  eV     1   --> A              
     e( 22 - 22) =      9.33003  eV     1   --> A              
     e( 23 - 23) =      9.98726  eV     1   --> A              
     e( 24 - 24) =     10.12374  eV     1   --> A              
     e( 25 - 25) =     10.46895  eV     1   --> A              

 **************************************************************************

 **************************************************************************

                    xk=(   0.50054,   0.28821,   0.00000  )

     Band symmetry, C_1 (1)     point group:

     e(  1 -  1) =    -13.91751  eV     1   --> A              
     e(  2 -  2) =    -13.91284  eV     1   --> A              
     e(  3 -  3) =     -6.91138  eV     1   --> A              
     e(  4 -  4) =     -6.90113  eV     1   --> A              
     e(  5 -  5) =     -1.99354  eV     1   --> A              
     e(  6 -  6) =     -1.97763  eV     1   --> A              
     e(  7 -  7) =     -1.15639  eV     1   --> A              
     e(  8 -  8) =     -1.14748  eV     1   --> A              
     e(  9 -  9) =     -0.51817  eV     1   --> A              
     e( 10 - 10) =     -0.47965  eV     1   --> A              
     e( 11 - 11) =      0.83300  eV     1   --> A              
     e( 12 - 12) =      0.85112  eV     1   --> A              
     e( 13 - 13) =      0.99159  eV     1   --> A              
     e( 14 - 14) =      1.18598  eV     1   --> A              
     e( 15 - 15) =      2.37152  eV     1   --> A              
     e( 16 - 16) =      2.69536  eV     1   --> A              
     e( 17 - 17) =      4.35374  eV     1   --> A              
     e( 18 - 18) =      4.47779  eV     1   --> A              
     e( 19 - 19) =      6.89178  eV     1   --> A              
     e( 20 - 20) =      6.98168  eV     1   --> A              
     e( 21 - 21) =      8.94233  eV     1   --> A              
     e( 22 - 22) =      9.37787  eV     1   --> A              
     e( 23 - 23) =      9.93042  eV     1   --> A              
     e( 24 - 24) =     10.07568  eV     1   --> A              
     e( 25 - 25) =     10.40834  eV     1   --> A              

 **************************************************************************

 **************************************************************************

                    xk=(   0.51979,   0.29929,   0.00000  )

     Band symmetry, C_1 (1)     point group:

     e(  1 -  1) =    -13.90876  eV     1   --> A              
     e(  2 -  2) =    -13.90409  eV     1   --> A              
     e(  3 -  3) =     -6.86761  eV     1   --> A              
     e(  4 -  4) =     -6.85736  eV     1   --> A              
     e(  5 -  5) =     -1.95106  eV     1   --> A              
     e(  6 -  6) =     -1.93450  eV     1   --> A              
     e(  7 -  7) =     -1.25356  eV     1   --> A              
     e(  8 -  8) =     -1.24434  eV     1   --> A              
     e(  9 -  9) =     -0.49296  eV     1   --> A              
     e( 10 - 10) =     -0.45392  eV     1   --> A              
     e( 11 - 11) =      0.66994  eV     1   --> A              
     e( 12 - 12) =      0.68962  eV     1   --> A              
     e( 13 - 13) =      1.03028  eV     1   --> A              
     e( 14 - 14) =      1.21220  eV     1   --> A              
     e( 15 - 15) =      2.44671  eV     1   --> A              
     e( 16 - 16) =      2.74808  eV     1   --> A              
     e( 17 - 17) =      4.37001  eV     1   --> A              
     e( 18 - 18) =      4.48039  eV     1   --> A              
     e( 19 - 19) =      6.78635  eV     1   --> A              
     e( 20 - 20) =      6.88267  eV     1   --> A              
     e( 21 - 21) =      8.99715  eV     1   --> A              
     e( 22 - 22) =      9.42809  eV     1   --> A              
     e( 23 - 23) =      9.90654  eV     1   --> A              
     e( 24 - 24) =     10.03801  eV     1   --> A              
     e( 25 - 25) =     10.35382  eV     1   --> A              

 **************************************************************************

 **************************************************************************

                    xk=(   0.53904,   0.31038,   0.00000  )

     Band symmetry, C_1 (1)     point group:

     e(  1 -  1) =    -13.90276  eV     1   --> A              
     e(  2 -  2) =    -13.89809  eV     1   --> A              
     e(  3 -  3) =     -6.83741  eV     1   --> A              
     e(  4 -  4) =     -6.82716  eV     1   --> A              
     e(  5 -  5) =     -1.90289  eV     1   --> A              
     e(  6 -  6) =     -1.88592  eV     1   --> A              
     e(  7 -  7) =     -1.34057  eV     1   --> A              
     e(  8 -  8) =     -1.33112  eV     1   --> A              
     e(  9 -  9) =     -0.45125  eV     1   --> A              
     e( 10 - 10) =     -0.41196  eV     1   --> A              
     e( 11 - 11) =      0.53047  eV     1   --> A              
     e( 12 - 12) =      0.55106  eV     1   --> A              
     e( 13 - 13) =      1.05676  eV     1   --> A              
     e( 14 - 14) =      1.22994  eV     1   --> A              
     e( 15 - 15) =      2.49975  eV     1   --> A              
     e( 16 - 16) =      2.78544  eV     1   --> A              
     e( 17 - 17) =      4.38668  eV     1   --> A              
     e( 18 - 18) =      4.48690  eV     1   --> A              
     e( 19 - 19) =      6.70918  eV     1   --> A              
     e( 20 - 20) =      6.81024  eV     1   --> A              
     e( 21 - 21) =      9.03754  eV     1   --> A              
     e( 22 - 22) =      9.46239  eV     1   --> A              
     e( 23 - 23) =      9.93116  eV     1   --> A              
     e( 24 - 24) =     10.02037  eV     1   --> A              
     e( 25 - 25) =     10.30558  eV     1   --> A              

 **************************************************************************

 **************************************************************************

                    xk=(   0.55829,   0.32146,   0.00000  )

     Band symmetry, C_1 (1)     point group:

     e(  1 -  1) =    -13.89933  eV     1   --> A              
     e(  2 -  2) =    -13.89466  eV     1   --> A              
     e(  3 -  3) =     -6.82018  eV     1   --> A              
     e(  4 -  4) =     -6.80992  eV     1   --> A              
     e(  5 -  5) =     -1.85931  eV     1   --> A              
     e(  6 -  6) =     -1.84206  eV     1   --> A              
     e(  7 -  7) =     -1.40719  eV     1   --> A              
     e(  8 -  8) =     -1.39765  eV     1   --> A              
     e(  9 -  9) =     -0.40776  eV     1   --> A              
     e( 10 - 10) =     -0.36830  eV     1   --> A              
     e( 11 - 11) =      0.42909  eV     1   --> A              
     e( 12 - 12) =      0.45015  eV     1   --> A              
     e( 13 - 13) =      1.07165  eV     1   --> A              
     e( 14 - 14) =      1.23992  eV     1   --> A              
     e( 15 - 15) =      2.53017  eV     1   --> A              
     e( 16 - 16) =      2.80689  eV     1   --> A              
     e( 17 - 17) =      4.39999  eV     1   --> A              
     e( 18 - 18) =      4.49400  eV     1   --> A              
     e( 19 - 19) =      6.66303  eV     1   --> A              
     e( 20 - 20) =      6.76672  eV     1   --> A              
     e( 21 - 21) =      9.05856  eV     1   --> A              
     e( 22 - 22) =      9.47362  eV     1   --> A              
     e( 23 - 23) =      9.99809  eV     1   --> A              
     e( 24 - 24) =     10.02719  eV     1   --> A              
     e( 25 - 25) =     10.26753  eV     1   --> A              

 **************************************************************************

 **************************************************************************

                    xk=(   0.57754,   0.33254,   0.00000  )

     Band symmetry, C_1 (1)     point group:

     e(  1 -  1) =    -13.89826  eV     1   --> A              
     e(  2 -  2) =    -13.89359  eV     1   --> A              
     e(  3 -  3) =     -6.81482  eV     1   --> A              
     e(  4 -  4) =     -6.80456  eV     1   --> A              
     e(  5 -  5) =     -1.83968  eV     1   --> A              
     e(  6 -  6) =     -1.82227  eV     1   --> A              
     e(  7 -  7) =     -1.43443  eV     1   --> A              
     e(  8 -  8) =     -1.42487  eV     1   --> A              
     e(  9 -  9) =     -0.38699  eV     1   --> A              
     e( 10 - 10) =     -0.34743  eV     1   --> A              
     e( 11 - 11) =      0.38930  eV     1   --> A              
     e( 12 - 12) =      0.41048  eV     1   --> A              
     e( 13 - 13) =      1.07622  eV     1   --> A              
     e( 14 - 14) =      1.24304  eV     1   --> A              
     e( 15 - 15) =      2.53961  eV     1   --> A              
     e( 16 - 16) =      2.81352  eV     1   --> A              
     e( 17 - 17) =      4.40527  eV     1   --> A              
     e( 18 - 18) =      4.49725  eV     1   --> A              
     e( 19 - 19) =      6.64826  eV     1   --> A              
     e( 20 - 20) =      6.75264  eV     1   --> A              
     e( 21 - 21) =      9.06353  eV     1   --> A              
     e( 22 - 22) =      9.47367  eV     1   --> A              
     e( 23 - 23) =     10.02233  eV     1   --> A              
     e( 24 - 24) =     10.06580  eV     1   --> A              
     e( 25 - 25) =     10.25133  eV     1   --> A              

 **************************************************************************

 **************************************************************************

                    xk=(   0.57754,   0.32146,   0.00000  )

     Band symmetry, C_1 (1)     point group:

     e(  1 -  1) =    -13.89848  eV     1   --> A              
     e(  2 -  2) =    -13.89382  eV     1   --> A              
     e(  3 -  3) =     -6.81596  eV     1   --> A              
     e(  4 -  4) =     -6.80570  eV     1   --> A              
     e(  5 -  5) =     -1.84541  eV     1   --> A              
     e(  6 -  6) =     -1.82804  eV     1   --> A              
     e(  7 -  7) =     -1.42680  eV     1   --> A              
     e(  8 -  8) =     -1.41724  eV     1   --> A              
     e(  9 -  9) =     -0.39351  eV     1   --> A              
     e( 10 - 10) =     -0.35398  eV     1   --> A              
     e( 11 - 11) =      0.40051  eV     1   --> A              
     e( 12 - 12) =      0.42166  eV     1   --> A              
     e( 13 - 13) =      1.07524  eV     1   --> A              
     e( 14 - 14) =      1.24236  eV     1   --> A              
     e( 15 - 15) =      2.53755  eV     1   --> A              
     e( 16 - 16) =      2.81209  eV     1   --> A              
     e( 17 - 17) =      4.40387  eV     1   --> A              
     e( 18 - 18) =      4.49632  eV     1   --> A              
     e( 19 - 19) =      6.65149  eV     1   --> A              
     e( 20 - 20) =      6.75579  eV     1   --> A              
     e( 21 - 21) =      9.06301  eV     1   --> A              
     e( 22 - 22) =      9.47455  eV     1   --> A              
     e( 23 - 23) =     10.01789  eV     1   --> A              
     e( 24 - 24) =     10.04789  eV     1   --> A              
     e( 25 - 25) =     10.25503  eV     1   --> A              

 **************************************************************************

 **************************************************************************

                    xk=(   0.57754,   0.31038,   0.00000  )

     Band symmetry, C_1 (1)     point group:

     e(  1 -  1) =    -13.89919  eV     1   --> A              
     e(  2 -  2) =    -13.89453  eV     1   --> A              
     e(  3 -  3) =     -6.81948  eV     1   --> A              
     e(  4 -  4) =     -6.80922  eV     1   --> A              
     e(  5 -  5) =     -1.86132  eV     1   --> A              
     e(  6 -  6) =     -1.84400  eV     1   --> A              
     e(  7 -  7) =     -1.40540  eV     1   --> A              
     e(  8 -  8) =     -1.39588  eV     1   --> A              
     e(  9 -  9) =     -0.41201  eV     1   --> A              
     e( 10 - 10) =     -0.37252  eV     1   --> A              
     e( 11 - 11) =      0.43267  eV     1   --> A              
     e( 12 - 12) =      0.45366  eV     1   --> A              
     e( 13 - 13) =      1.07237  eV     1   --> A              
     e( 14 - 14) =      1.24032  eV     1   --> A              
     e( 15 - 15) =      2.53154  eV     1   --> A              
     e( 16 - 16) =      2.80791  eV     1   --> A              
     e( 17 - 17) =      4.39924  eV     1   --> A              
     e( 18 - 18) =      4.49305  eV     1   --> A              
     e( 19 - 19) =      6.66085  eV     1   --> A              
     e( 20 - 20) =      6.76511  eV     1   --> A              
     e( 21 - 21) =      9.06296  eV     1   --> A              
     e( 22 - 22) =      9.47814  eV     1   --> A              
     e( 23 - 23) =      9.98663  eV     1   --> A              
     e( 24 - 24) =     10.02072  eV     1   --> A              
     e( 25 - 25) =     10.26727  eV     1   --> A              

 **************************************************************************

 **************************************************************************

                    xk=(   0.57754,   0.29929,   0.00000  )

     Band symmetry, C_1 (1)     point group:

     e(  1 -  1) =    -13.90036  eV     1   --> A              
     e(  2 -  2) =    -13.89569  eV     1   --> A              
     e(  3 -  3) =     -6.82517  eV     1   --> A              
     e(  4 -  4) =     -6.81491  eV     1   --> A              
     e(  5 -  5) =     -1.88529  eV     1   --> A              
     e(  6 -  6) =     -1.86796  eV     1   --> A              
     e(  7 -  7) =     -1.37251  eV     1   --> A              
     e(  8 -  8) =     -1.36304  eV     1   --> A              
     e(  9 -  9) =     -0.44100  eV     1   --> A              
     e( 10 - 10) =     -0.40149  eV     1   --> A              
     e( 11 - 11) =      0.48399  eV     1   --> A              
     e( 12 - 12) =      0.50456  eV     1   --> A              
     e( 13 - 13) =      1.06790  eV     1   --> A              
     e( 14 - 14) =      1.23708  eV     1   --> A              
     e( 15 - 15) =      2.52209  eV     1   --> A              
     e( 16 - 16) =      2.80133  eV     1   --> A              
     e( 17 - 17) =      4.39124  eV     1   --> A              
     e( 18 - 18) =      4.48723  eV     1   --> A              
     e( 19 - 19) =      6.67520  eV     1   --> A              
     e( 20 - 20) =      6.77978  eV     1   --> A              
     e( 21 - 21) =      9.06518  eV     1   --> A              
     e( 22 - 22) =      9.48558  eV     1   --> A              
     e( 23 - 23) =      9.92729  eV     1   --> A              
     e( 24 - 24) =     10.00270  eV     1   --> A              
     e( 25 - 25) =     10.28521  eV     1   --> A              

 **************************************************************************

 **************************************************************************

                    xk=(   0.57754,   0.28821,   0.00000  )

     Band symmetry, C_1 (1)     point group:

     e(  1 -  1) =    -13.90193  eV     1   --> A              
     e(  2 -  2) =    -13.89727  eV     1   --> A              
     e(  3 -  3) =     -6.83280  eV     1   --> A              
     e(  4 -  4) =     -6.82255  eV     1   --> A              
     e(  5 -  5) =     -1.91480  eV     1   --> A              
     e(  6 -  6) =     -1.89740  eV     1   --> A              
     e(  7 -  7) =     -1.33073  eV     1   --> A              
     e(  8 -  8) =     -1.32141  eV     1   --> A              
     e(  9 -  9) =     -0.47804  eV     1   --> A              
     e( 10 - 10) =     -0.43841  eV     1   --> A              
     e( 11 - 11) =      0.55165  eV     1   --> A              
     e( 12 - 12) =      0.57140  eV     1   --> A              
     e( 13 - 13) =      1.06226  eV     1   --> A              
     e( 14 - 14) =      1.23279  eV     1   --> A              
     e( 15 - 15) =      2.50969  eV     1   --> A              
     e( 16 - 16) =      2.79271  eV     1   --> A              
     e( 17 - 17) =      4.37994  eV     1   --> A              
     e( 18 - 18) =      4.47875  eV     1   --> A              
     e( 19 - 19) =      6.69319  eV     1   --> A              
     e( 20 - 20) =      6.79879  eV     1   --> A              
     e( 21 - 21) =      9.07142  eV     1   --> A              
     e( 22 - 22) =      9.49764  eV     1   --> A              
     e( 23 - 23) =      9.86127  eV     1   --> A              
     e( 24 - 24) =      9.98249  eV     1   --> A              
     e( 25 - 25) =     10.30562  eV     1   --> A              

 **************************************************************************

 **************************************************************************

                    xk=(   0.57754,   0.27712,   0.00000  )

     Band symmetry, C_1 (1)     point group:

     e(  1 -  1) =    -13.90388  eV     1   --> A              
     e(  2 -  2) =    -13.89922  eV     1   --> A              
     e(  3 -  3) =     -6.84216  eV     1   --> A              
     e(  4 -  4) =     -6.83190  eV     1   --> A              
     e(  5 -  5) =     -1.94777  eV     1   --> A              
     e(  6 -  6) =     -1.93022  eV     1   --> A              
     e(  7 -  7) =     -1.28232  eV     1   --> A              
     e(  8 -  8) =     -1.27321  eV     1   --> A              
     e(  9 -  9) =     -0.52061  eV     1   --> A              
     e( 10 - 10) =     -0.48076  eV     1   --> A              
     e( 11 - 11) =      0.63270  eV     1   --> A              
     e( 12 - 12) =      0.65095  eV     1   --> A              
     e( 13 - 13) =      1.05604  eV     1   --> A              
     e( 14 - 14) =      1.22761  eV     1   --> A              
     e( 15 - 15) =      2.49486  eV     1   --> A              
     e( 16 - 16) =      2.78243  eV     1   --> A              
     e( 17 - 17) =      4.36551  eV     1   --> A              
     e( 18 - 18) =      4.46767  eV     1   --> A              
     e( 19 - 19) =      6.71325  eV     1   --> A              
     e( 20 - 20) =      6.82101  eV     1   --> A              
     e( 21 - 21) =      9.08334  eV     1   --> A              
     e( 22 - 22) =      9.51443  eV     1   --> A              
     e( 23 - 23) =      9.79462  eV     1   --> A              
     e( 24 - 24) =      9.95978  eV     1   --> A              
     e( 25 - 25) =     10.32549  eV     1   --> A              

 **************************************************************************

 **************************************************************************

                    xk=(   0.57754,   0.26604,   0.00000  )

     Band symmetry, C_1 (1)     point group:

     e(  1 -  1) =    -13.90617  eV     1   --> A              
     e(  2 -  2) =    -13.90150  eV     1   --> A              
     e(  3 -  3) =     -6.85302  eV     1   --> A              
     e(  4 -  4) =     -6.84276  eV     1   --> A              
     e(  5 -  5) =     -1.98270  eV     1   --> A              
     e(  6 -  6) =     -1.96494  eV     1   --> A              
     e(  7 -  7) =     -1.22898  eV     1   --> A              
     e(  8 -  8) =     -1.22009  eV     1   --> A              
     e(  9 -  9) =     -0.56663  eV     1   --> A              
     e( 10 - 10) =     -0.52645  eV     1   --> A              
     e( 11 - 11) =      0.72450  eV     1   --> A              
     e( 12 - 12) =      0.73988  eV     1   --> A              
     e( 13 - 13) =      1.05040  eV     1   --> A              
     e( 14 - 14) =      1.22177  eV     1   --> A              
     e( 15 - 15) =      2.47809  eV     1   --> A              
     e( 16 - 16) =      2.77080  eV     1   --> A              
     e( 17 - 17) =      4.34824  eV     1   --> A              
     e( 18 - 18) =      4.45415  eV     1   --> A              
     e( 19 - 19) =      6.73375  eV     1   --> A              
     e( 20 - 20) =      6.84519  eV     1   --> A              
     e( 21 - 21) =      9.10238  eV     1   --> A              
     e( 22 - 22) =      9.53433  eV     1   --> A              
     e( 23 - 23) =      9.73159  eV     1   --> A              
     e( 24 - 24) =      9.93550  eV     1   --> A              
     e( 25 - 25) =     10.34244  eV     1   --> A              

 **************************************************************************

 **************************************************************************

                    xk=(   0.57754,   0.25495,   0.00000  )

     Band symmetry, C_1 (1)     point group:

     e(  1 -  1) =    -13.90875  eV     1   --> A              
     e(  2 -  2) =    -13.90408  eV     1   --> A              
     e(  3 -  3) =     -6.86514  eV     1   --> A              
     e(  4 -  4) =     -6.85488  eV     1   --> A              
     e(  5 -  5) =     -2.01854  eV     1   --> A              
     e(  6 -  6) =     -2.00053  eV     1   --> A              
     e(  7 -  7) =     -1.17191  eV     1   --> A              
     e(  8 -  8) =     -1.16327  eV     1   --> A              
     e(  9 -  9) =     -0.61450  eV     1   --> A              
     e( 10 - 10) =     -0.57390  eV     1   --> A              
     e( 11 - 11) =      0.82407  eV     1   --> A              
     e( 12 - 12) =      0.83388  eV     1   --> A              
     e( 13 - 13) =      1.04861  eV     1   --> A              
     e( 14 - 14) =      1.21563  eV     1   --> A              
     e( 15 - 15) =      2.45986  eV     1   --> A              
     e( 16 - 16) =      2.75815  eV     1   --> A              
     e( 17 - 17) =      4.32849  eV     1   --> A              
     e( 18 - 18) =      4.43843  eV     1   --> A              
     e( 19 - 19) =      6.75308  eV     1   --> A              
     e( 20 - 20) =      6.87008  eV     1   --> A              
     e( 21 - 21) =      9.12972  eV     1   --> A              
     e( 22 - 22) =      9.54865  eV     1   --> A              
     e( 23 - 23) =      9.68241  eV     1   --> A              
     e( 24 - 24) =      9.91051  eV     1   --> A              
     e( 25 - 25) =     10.35482  eV     1   --> A              

 **************************************************************************

 **************************************************************************

                    xk=(   0.57754,   0.24387,   0.00000  )

     Band symmetry, C_1 (1)     point group:

     e(  1 -  1) =    -13.91158  eV     1   --> A              
     e(  2 -  2) =    -13.90692  eV     1   --> A              
     e(  3 -  3) =     -6.87832  eV     1   --> A              
     e(  4 -  4) =     -6.86806  eV     1   --> A              
     e(  5 -  5) =     -2.05459  eV     1   --> A              
     e(  6 -  6) =     -2.03629  eV     1   --> A              
     e(  7 -  7) =     -1.11205  eV     1   --> A              
     e(  8 -  8) =     -1.10367  eV     1   --> A              
     e(  9 -  9) =     -0.66303  eV     1   --> A              
     e( 10 - 10) =     -0.62195  eV     1   --> A              
     e( 11 - 11) =      0.91437  eV     1   --> A              
     e( 12 - 12) =      0.93411  eV     1   --> A              
     e( 13 - 13) =      1.06289  eV     1   --> A              
     e( 14 - 14) =      1.20996  eV     1   --> A              
     e( 15 - 15) =      2.44064  eV     1   --> A              
     e( 16 - 16) =      2.74477  eV     1   --> A              
     e( 17 - 17) =      4.30667  eV     1   --> A              
     e( 18 - 18) =      4.42081  eV     1   --> A              
     e( 19 - 19) =      6.76974  eV     1   --> A              
     e( 20 - 20) =      6.89447  eV     1   --> A              
     e( 21 - 21) =      9.16618  eV     1   --> A              
     e( 22 - 22) =      9.53200  eV     1   --> A              
     e( 23 - 23) =      9.67344  eV     1   --> A              
     e( 24 - 24) =      9.88556  eV     1   --> A              
     e( 25 - 25) =     10.36159  eV     1   --> A              

 **************************************************************************

 **************************************************************************

                    xk=(   0.57754,   0.23278,   0.00000  )

     Band symmetry, C_1 (1)     point group:

     e(  1 -  1) =    -13.91464  eV     1   --> A              
     e(  2 -  2) =    -13.90997  eV     1   --> A              
     e(  3 -  3) =     -6.89234  eV     1   --> A              
     e(  4 -  4) =     -6.88208  eV     1   --> A              
     e(  5 -  5) =     -2.09039  eV     1   --> A              
     e(  6 -  6) =     -2.07177  eV     1   --> A              
     e(  7 -  7) =     -1.05016  eV     1   --> A              
     e(  8 -  8) =     -1.04205  eV     1   --> A              
     e(  9 -  9) =     -0.71135  eV     1   --> A              
     e( 10 - 10) =     -0.66974  eV     1   --> A              
     e( 11 - 11) =      0.95790  eV     1   --> A              
     e( 12 - 12) =      1.04256  eV     1   --> A              
     e( 13 - 13) =      1.12358  eV     1   --> A              
     e( 14 - 14) =      1.20757  eV     1   --> A              
     e( 15 - 15) =      2.42091  eV     1   --> A              
     e( 16 - 16) =      2.73095  eV     1   --> A              
     e( 17 - 17) =      4.28320  eV     1   --> A              
     e( 18 - 18) =      4.40162  eV     1   --> A              
     e( 19 - 19) =      6.78246  eV     1   --> A              
     e( 20 - 20) =      6.91724  eV     1   --> A              
     e( 21 - 21) =      9.21202  eV     1   --> A              
     e( 22 - 22) =      9.48295  eV     1   --> A              
     e( 23 - 23) =      9.70667  eV     1   --> A              
     e( 24 - 24) =      9.86143  eV     1   --> A              
     e( 25 - 25) =     10.36229  eV     1   --> A              

 **************************************************************************

 **************************************************************************

                    xk=(   0.57754,   0.22170,   0.00000  )

     Band symmetry, C_1 (1)     point group:

     e(  1 -  1) =    -13.91786  eV     1   --> A              
     e(  2 -  2) =    -13.91319  eV     1   --> A              
     e(  3 -  3) =     -6.90700  eV     1   --> A              
     e(  4 -  4) =     -6.89674  eV     1   --> A              
     e(  5 -  5) =     -2.12556  eV     1   --> A              
     e(  6 -  6) =     -2.10657  eV     1   --> A              
     e(  7 -  7) =     -0.98693  eV     1   --> A              
     e(  8 -  8) =     -0.97910  eV     1   --> A              
     e(  9 -  9) =     -0.75867  eV     1   --> A              
     e( 10 - 10) =     -0.71656  eV     1   --> A              
     e( 11 - 11) =      0.96366  eV     1   --> A              
     e( 12 - 12) =      1.13417  eV     1   --> A              
     e( 13 - 13) =      1.22385  eV     1   --> A              
     e( 14 - 14) =      1.22938  eV     1   --> A              
     e( 15 - 15) =      2.40115  eV     1   --> A              
     e( 16 - 16) =      2.71693  eV     1   --> A              
[...]
     e(  9 -  9) =      0.30827  eV     1   --> A''            
     e( 10 - 10) =      0.31592  eV     1   --> A''            
     e( 11 - 11) =      0.43632  eV     1   --> A'             
     e( 12 - 12) =      1.29835  eV     1   --> A'             
     e( 13 - 13) =      2.90229  eV     1   --> A'             
     e( 14 - 14) =      2.97164  eV     1   --> A'             
     e( 15 - 15) =      3.45155  eV     1   --> A'             
     e( 16 - 16) =      4.18407  eV     1   --> A'             
     e( 17 - 17) =      4.36930  eV     1   --> A''            
     e( 18 - 18) =      4.37826  eV     1   --> A''            
     e( 19 - 19) =      7.03806  eV     1   --> A'             
     e( 20 - 20) =      7.79054  eV     1   --> A'             
     e( 21 - 21) =      9.92191  eV     1   --> A'             
     e( 22 - 22) =     10.45044  eV     1   --> A'             
     e( 23 - 23) =     10.87450  eV     1   --> A'             
     e( 24 - 24) =     11.35410  eV     1   --> A'             
     e( 25 - 25) =     11.80449  eV     1   --> A'             

 **************************************************************************

 **************************************************************************

                    xk=(   0.17326,   0.00000,   0.00000  )

     Band symmetry, C_s (m)     point group:

     e(  1 -  1) =    -14.40687  eV     1   --> A'             
     e(  2 -  2) =    -14.40204  eV     1   --> A'             
     e(  3 -  3) =     -8.71389  eV     1   --> A'             
     e(  4 -  4) =     -8.70296  eV     1   --> A'             
     e(  5 -  5) =     -1.35925  eV     1   --> A'             
     e(  6 -  6) =     -1.14311  eV     1   --> A'             
     e(  7 -  7) =     -0.27988  eV     1   --> A'             
     e(  8 -  8) =     -0.09534  eV     1   --> A'             
     e(  9 -  9) =      0.33235  eV     1   --> A''            
     e( 10 - 10) =      0.34004  eV     1   --> A''            
     e( 11 - 11) =      0.38666  eV     1   --> A'             
     e( 12 - 12) =      1.26186  eV     1   --> A'             
     e( 13 - 13) =      3.06271  eV     1   --> A'             
     e( 14 - 14) =      3.24406  eV     1   --> A'             
     e( 15 - 15) =      3.48159  eV     1   --> A'             
     e( 16 - 16) =      4.14128  eV     1   --> A'             
     e( 17 - 17) =      4.44412  eV     1   --> A''            
     e( 18 - 18) =      4.45307  eV     1   --> A''            
     e( 19 - 19) =      6.89280  eV     1   --> A'             
     e( 20 - 20) =      7.67797  eV     1   --> A'             
     e( 21 - 21) =     10.00194  eV     1   --> A'             
     e( 22 - 22) =     10.69315  eV     1   --> A'             
     e( 23 - 23) =     11.01655  eV     1   --> A'             
     e( 24 - 24) =     11.47580  eV     1   --> A'             
     e( 25 - 25) =     11.95055  eV     1   --> A'             

 **************************************************************************

 **************************************************************************

                    xk=(   0.15401,   0.00000,   0.00000  )

     Band symmetry, C_s (m)     point group:

     e(  1 -  1) =    -14.42789  eV     1   --> A'             
     e(  2 -  2) =    -14.42304  eV     1   --> A'             
     e(  3 -  3) =     -8.77329  eV     1   --> A'             
     e(  4 -  4) =     -8.76231  eV     1   --> A'             
     e(  5 -  5) =     -1.39808  eV     1   --> A'             
     e(  6 -  6) =     -1.14857  eV     1   --> A'             
     e(  7 -  7) =     -0.16723  eV     1   --> A'             
     e(  8 -  8) =     -0.02139  eV     1   --> A'             
     e(  9 -  9) =      0.34121  eV     1   --> A'             
     e( 10 - 10) =      0.35485  eV     1   --> A''            
     e( 11 - 11) =      0.36256  eV     1   --> A''            
     e( 12 - 12) =      1.22672  eV     1   --> A'             
     e( 13 - 13) =      3.09277  eV     1   --> A'             
     e( 14 - 14) =      3.50660  eV     1   --> A'             
     e( 15 - 15) =      3.63687  eV     1   --> A'             
     e( 16 - 16) =      4.10065  eV     1   --> A'             
     e( 17 - 17) =      4.51568  eV     1   --> A''            
     e( 18 - 18) =      4.52462  eV     1   --> A''            
     e( 19 - 19) =      6.75576  eV     1   --> A'             
     e( 20 - 20) =      7.56711  eV     1   --> A'             
     e( 21 - 21) =     10.05088  eV     1   --> A'             
     e( 22 - 22) =     10.92120  eV     1   --> A'             
     e( 23 - 23) =     11.18174  eV     1   --> A'             
     e( 24 - 24) =     11.57640  eV     1   --> A'             
     e( 25 - 25) =     12.06487  eV     1   --> A'             

 **************************************************************************

 **************************************************************************

                    xk=(   0.13476,   0.00000,   0.00000  )

     Band symmetry, C_s (m)     point group:

     e(  1 -  1) =    -14.44689  eV     1   --> A'             
     e(  2 -  2) =    -14.44204  eV     1   --> A'             
     e(  3 -  3) =     -8.82622  eV     1   --> A'             
     e(  4 -  4) =     -8.81520  eV     1   --> A'             
     e(  5 -  5) =     -1.43770  eV     1   --> A'             
     e(  6 -  6) =     -1.16312  eV     1   --> A'             
     e(  7 -  7) =     -0.05208  eV     1   --> A'             
     e(  8 -  8) =      0.06159  eV     1   --> A'             
     e(  9 -  9) =      0.30040  eV     1   --> A'             
     e( 10 - 10) =      0.37549  eV     1   --> A''            
     e( 11 - 11) =      0.38322  eV     1   --> A''            
     e( 12 - 12) =      1.19390  eV     1   --> A'             
     e( 13 - 13) =      3.05278  eV     1   --> A'             
     e( 14 - 14) =      3.74680  eV     1   --> A'             
     e( 15 - 15) =      3.85356  eV     1   --> A'             
     e( 16 - 16) =      4.07150  eV     1   --> A'             
     e( 17 - 17) =      4.58281  eV     1   --> A''            
     e( 18 - 18) =      4.59175  eV     1   --> A''            
     e( 19 - 19) =      6.62885  eV     1   --> A'             
     e( 20 - 20) =      7.46163  eV     1   --> A'             
     e( 21 - 21) =     10.07719  eV     1   --> A'             
     e( 22 - 22) =     11.12759  eV     1   --> A'             
     e( 23 - 23) =     11.35263  eV     1   --> A'             
     e( 24 - 24) =     11.65301  eV     1   --> A'             
     e( 25 - 25) =     12.12049  eV     1   --> A'             

 **************************************************************************

 **************************************************************************

                    xk=(   0.11551,   0.00000,   0.00000  )

     Band symmetry, C_s (m)     point group:

     e(  1 -  1) =    -14.46371  eV     1   --> A'             
     e(  2 -  2) =    -14.45886  eV     1   --> A'             
     e(  3 -  3) =     -8.87249  eV     1   --> A'             
     e(  4 -  4) =     -8.86143  eV     1   --> A'             
     e(  5 -  5) =     -1.47522  eV     1   --> A'             
     e(  6 -  6) =     -1.18216  eV     1   --> A'             
     e(  7 -  7) =      0.06060  eV     1   --> A'             
     e(  8 -  8) =      0.14695  eV     1   --> A'             
     e(  9 -  9) =      0.26477  eV     1   --> A'             
     e( 10 - 10) =      0.39398  eV     1   --> A''            
     e( 11 - 11) =      0.40173  eV     1   --> A''            
     e( 12 - 12) =      1.16398  eV     1   --> A'             
     e( 13 - 13) =      2.99391  eV     1   --> A'             
     e( 14 - 14) =      3.90403  eV     1   --> A'             
     e( 15 - 15) =      4.07653  eV     1   --> A'             
     e( 16 - 16) =      4.11159  eV     1   --> A'             
     e( 17 - 17) =      4.64430  eV     1   --> A''            
     e( 18 - 18) =      4.65322  eV     1   --> A''            
     e( 19 - 19) =      6.51375  eV     1   --> A'             
     e( 20 - 20) =      7.36447  eV     1   --> A'             
     e( 21 - 21) =     10.08817  eV     1   --> A'             
     e( 22 - 22) =     11.30022  eV     1   --> A'             
     e( 23 - 23) =     11.50526  eV     1   --> A'             
     e( 24 - 24) =     11.69987  eV     1   --> A'             
     e( 25 - 25) =     12.08741  eV     1   -->   ?

 **************************************************************************

 **************************************************************************

                    xk=(   0.09626,   0.00000,   0.00000  )

     Band symmetry, C_s (m)     point group:

     e(  1 -  1) =    -14.47821  eV     1   --> A'             
     e(  2 -  2) =    -14.47335  eV     1   --> A'             
     e(  3 -  3) =     -8.91191  eV     1   --> A'             
     e(  4 -  4) =     -8.90082  eV     1   --> A'             
     e(  5 -  5) =     -1.50887  eV     1   --> A'             
     e(  6 -  6) =     -1.20229  eV     1   --> A'             
     e(  7 -  7) =      0.16646  eV     1   --> A'             
     e(  8 -  8) =      0.22227  eV     1   --> A'             
     e(  9 -  9) =      0.24137  eV     1   --> A'             
     e( 10 - 10) =      0.41006  eV     1   --> A''            
     e( 11 - 11) =      0.41784  eV     1   --> A''            
     e( 12 - 12) =      1.13741  eV     1   --> A'             
     e( 13 - 13) =      2.93219  eV     1   --> A'             
     e( 14 - 14) =      3.91445  eV     1   --> A'             
     e( 15 - 15) =      4.27745  eV     1   --> A'             
     e( 16 - 16) =      4.28973  eV     1   --> A'             
     e( 17 - 17) =      4.69892  eV     1   --> A''            
     e( 18 - 18) =      4.70784  eV     1   --> A''            
     e( 19 - 19) =      6.41199  eV     1   --> A'             
     e( 20 - 20) =      7.27804  eV     1   --> A'             
     e( 21 - 21) =     10.08894  eV     1   --> A'             
     e( 22 - 22) =     11.41468  eV     1   --> A'             
     e( 23 - 23) =     11.59627  eV     1   --> A'             
     e( 24 - 24) =     11.71288  eV     1   --> A'             
     e( 25 - 25) =     12.05246  eV     1   -->   ?

 **************************************************************************

 **************************************************************************

                    xk=(   0.07701,   0.00000,   0.00000  )

     Band symmetry, C_s (m)     point group:

     e(  1 -  1) =    -14.49024  eV     1   --> A'             
     e(  2 -  2) =    -14.48537  eV     1   --> A'             
     e(  3 -  3) =     -8.94435  eV     1   --> A'             
     e(  4 -  4) =     -8.93323  eV     1   --> A'             
     e(  5 -  5) =     -1.53749  eV     1   --> A'             
     e(  6 -  6) =     -1.22114  eV     1   --> A'             
     e(  7 -  7) =      0.20663  eV     1   --> A'             
     e(  8 -  8) =      0.26173  eV     1   --> A'             
     e(  9 -  9) =      0.30635  eV     1   --> A'             
     e( 10 - 10) =      0.42357  eV     1   --> A''            
     e( 11 - 11) =      0.43136  eV     1   --> A''            
     e( 12 - 12) =      1.11452  eV     1   --> A'             
     e( 13 - 13) =      2.87419  eV     1   --> A'             
     e( 14 - 14) =      3.88726  eV     1   --> A'             
     e( 15 - 15) =      4.46178  eV     1   --> A'             
     e( 16 - 16) =      4.47678  eV     1   --> A'             
     e( 17 - 17) =      4.74551  eV     1   --> A''            
     e( 18 - 18) =      4.75443  eV     1   --> A''            
     e( 19 - 19) =      6.32497  eV     1   --> A'             
     e( 20 - 20) =      7.20435  eV     1   --> A'             
     e( 21 - 21) =     10.08310  eV     1   --> A'             
     e( 22 - 22) =     11.43345  eV     1   --> A'             
     e( 23 - 23) =     11.58291  eV     1   --> A'             
     e( 24 - 24) =     11.72258  eV     1   --> A'             
     e( 25 - 25) =     12.09285  eV     1   -->   ?

 **************************************************************************

 **************************************************************************

                    xk=(   0.05775,   0.00000,   0.00000  )

     Band symmetry, C_s (m)     point group:

     e(  1 -  1) =    -14.49970  eV     1   --> A'             
     e(  2 -  2) =    -14.49483  eV     1   --> A'             
     e(  3 -  3) =     -8.96970  eV     1   --> A'             
     e(  4 -  4) =     -8.95855  eV     1   --> A'             
     e(  5 -  5) =     -1.56036  eV     1   --> A'             
     e(  6 -  6) =     -1.23712  eV     1   --> A'             
     e(  7 -  7) =      0.18711  eV     1   --> A'             
     e(  8 -  8) =      0.34183  eV     1   --> A'             
     e(  9 -  9) =      0.36912  eV     1   --> A'             
     e( 10 - 10) =      0.43425  eV     1   --> A''            
     e( 11 - 11) =      0.44206  eV     1   --> A''            
     e( 12 - 12) =      1.09570  eV     1   --> A'             
     e( 13 - 13) =      2.82411  eV     1   --> A'             
     e( 14 - 14) =      3.85838  eV     1   --> A'             
     e( 15 - 15) =      4.62034  eV     1   --> A'             
     e( 16 - 16) =      4.63334  eV     1   --> A'             
     e( 17 - 17) =      4.78301  eV     1   --> A''            
     e( 18 - 18) =      4.79193  eV     1   --> A''            
     e( 19 - 19) =      6.25417  eV     1   --> A'             
     e( 20 - 20) =      7.14509  eV     1   --> A'             
     e( 21 - 21) =     10.07365  eV     1   --> A'             
     e( 22 - 22) =     11.37302  eV     1   --> A'             
     e( 23 - 23) =     11.50888  eV     1   --> A'             
     e( 24 - 24) =     11.75061  eV     1   --> A'             
     e( 25 - 25) =     12.18236  eV     1   -->   ?

 **************************************************************************

 **************************************************************************

                    xk=(   0.03850,   0.00000,   0.00000  )

     Band symmetry, C_s (m)     point group:

     e(  1 -  1) =    -14.50652  eV     1   --> A'             
     e(  2 -  2) =    -14.50165  eV     1   --> A'             
     e(  3 -  3) =     -8.98786  eV     1   --> A'             
     e(  4 -  4) =     -8.97670  eV     1   --> A'             
     e(  5 -  5) =     -1.57698  eV     1   --> A'             
     e(  6 -  6) =     -1.24918  eV     1   --> A'             
     e(  7 -  7) =      0.17288  eV     1   --> A'             
     e(  8 -  8) =      0.40265  eV     1   --> A'             
     e(  9 -  9) =      0.41720  eV     1   --> A'             
     e( 10 - 10) =      0.44202  eV     1   --> A''            
     e( 11 - 11) =      0.44983  eV     1   --> A''            
     e( 12 - 12) =      1.08148  eV     1   --> A'             
     e( 13 - 13) =      2.78539  eV     1   --> A'             
     e( 14 - 14) =      3.83489  eV     1   --> A'             
     e( 15 - 15) =      4.74141  eV     1   --> A'             
     e( 16 - 16) =      4.75190  eV     1   --> A'             
     e( 17 - 17) =      4.81051  eV     1   --> A''            
     e( 18 - 18) =      4.81942  eV     1   --> A''            
     e( 19 - 19) =      6.20130  eV     1   --> A'             
     e( 20 - 20) =      7.10165  eV     1   --> A'             
     e( 21 - 21) =     10.06359  eV     1   --> A'             
     e( 22 - 22) =     11.29768  eV     1   --> A'             
     e( 23 - 23) =     11.43334  eV     1   --> A'             
     e( 24 - 24) =     11.77601  eV     1   --> A'             
     e( 25 - 25) =     12.26648  eV     1   -->   ?

 **************************************************************************

 **************************************************************************

                    xk=(   0.01925,   0.00000,   0.00000  )

     Band symmetry, C_s (m)     point group:

     e(  1 -  1) =    -14.51063  eV     1   --> A'             
     e(  2 -  2) =    -14.50576  eV     1   --> A'             
     e(  3 -  3) =     -8.99878  eV     1   --> A'             
     e(  4 -  4) =     -8.98761  eV     1   --> A'             
     e(  5 -  5) =     -1.58706  eV     1   --> A'             
     e(  6 -  6) =     -1.25665  eV     1   --> A'             
     e(  7 -  7) =      0.16429  eV     1   --> A'             
     e(  8 -  8) =      0.43988  eV     1   --> A'             
     e(  9 -  9) =      0.44672  eV     1   --> A''            
     e( 10 - 10) =      0.44832  eV     1   --> A'             
     e( 11 - 11) =      0.45454  eV     1   --> A''            
     e( 12 - 12) =      1.07251  eV     1   --> A'             
     e( 13 - 13) =      2.76085  eV     1   --> A'             
     e( 14 - 14) =      3.81976  eV     1   --> A'             
     e( 15 - 15) =      4.81720  eV     1   --> A'             
     e( 16 - 16) =      4.82636  eV     1   --> A'             
     e( 17 - 17) =      4.82730  eV     1   --> A''            
     e( 18 - 18) =      4.83621  eV     1   --> A''            
     e( 19 - 19) =      6.16832  eV     1   --> A'             
     e( 20 - 20) =      7.07512  eV     1   --> A'             
     e( 21 - 21) =     10.05593  eV     1   --> A'             
     e( 22 - 22) =     11.24311  eV     1   --> A'             
     e( 23 - 23) =     11.38183  eV     1   --> A'             
     e( 24 - 24) =     11.79104  eV     1   --> A'             
     e( 25 - 25) =     12.32823  eV     1   -->   ?

 **************************************************************************

 **************************************************************************

                    xk=(   0.00000,   0.00000,   0.00000  )

     Band symmetry, C_s (m)     point group:

     e(  1 -  1) =    -14.51201  eV     1   --> A'             
     e(  2 -  2) =    -14.50713  eV     1   --> A'             
     e(  3 -  3) =     -9.00242  eV     1   --> A'             
     e(  4 -  4) =     -8.99125  eV     1   --> A'             
     e(  5 -  5) =     -1.59044  eV     1   --> A'             
     e(  6 -  6) =     -1.25918  eV     1   --> A'             
     e(  7 -  7) =      0.16141  eV     1   --> A'             
     e(  8 -  8) =      0.44832  eV     1   --> A''            
     e(  9 -  9) =      0.45188  eV     1   --> A'             
     e( 10 - 10) =      0.45615  eV     1   --> A''            
     e( 11 - 11) =      0.45971  eV     1   --> A'             
     e( 12 - 12) =      1.06942  eV     1   --> A'             
     e( 13 - 13) =      2.75244  eV     1   --> A'             
     e( 14 - 14) =      3.81454  eV     1   --> A'             
     e( 15 - 15) =      4.83295  eV     1   --> A''            
     e( 16 - 16) =      4.84186  eV     1   --> A''            
     e( 17 - 17) =      4.84295  eV     1   --> A'             
     e( 18 - 18) =      4.85187  eV     1   --> A'             
     e( 19 - 19) =      6.15708  eV     1   --> A'             
     e( 20 - 20) =      7.06619  eV     1   --> A'             
     e( 21 - 21) =     10.05307  eV     1   --> A'             
     e( 22 - 22) =     11.22360  eV     1   --> A'             
     e( 23 - 23) =     11.36384  eV     1   --> A'             
     e( 24 - 24) =     11.79589  eV     1   --> A'             
     e( 25 - 25) =     12.32108  eV     1   -->   ?

 **************************************************************************
 
     BANDS        :      7.38s CPU      8.90s WALL

 
   This run was terminated on:  13:59:38  11Jun2023            

=------------------------------------------------------------------------------=
   JOB DONE.
=------------------------------------------------------------------------------=
