
     Program PWSCF v.7.0 starts on 11Jun2023 at 13:57:38 

     This program is part of the open-source Quantum ESPRESSO suite
     for quantum simulation of materials; please cite
         "P. Giannozzi et al., J. Phys.:Condens. Matter 21 395502 (2009);
         "P. Giannozzi et al., J. Phys.:Condens. Matter 29 465901 (2017);
         "P. Giannozzi et al., J. Chem. Phys. 152 154105 (2020);
          URL http://www.quantum-espresso.org", 
     in publications or presentations arising from this work. More details at
     http://www.quantum-espresso.org/quote

     Parallel version (MPI), running on    16 processors

     MPI processes distributed on     1 nodes
     R & G space division:  proc/nbgrp/npool/nimage =      16
     31696 MiB available memory on the printing compute node when the environment starts
 
     Waiting for input...
     Reading input from standard input

     Current dimensions of program PWSCF are:
     Max number of different atomic species (ntypx) = 10
     Max number of k-points (npk) =  40000
     Max angular momentum in pseudopotentials (lmaxx) =  4
     Message from routine volume:
     axis vectors are left-handed

     Atomic positions and unit cell read from directory:
     ./work/Al2SO.save/
     Atomic positions from file used, from input discarded
 
     Message from routine volume:
     axis vectors are left-handed
     file Al.pbe-n-kjpaw_psl.1.0.0.UPF: wavefunction(s)  3S 3P renormalized
     file O.pbe-n-kjpaw_psl.1.0.0.UPF: wavefunction(s)  2S 2P renormalized
     file S.pbe-n-kjpaw_psl.1.0.0.UPF: wavefunction(s)  3S 3P renormalized

     IMPORTANT: XC functional enforced from input :
     Exchange-correlation= VDW-DF2-B86R
                           (   1   4  26   0   2   0   0)
     Any further DFT definition will be discarded
     Please, verify this is what you really want

     Message from routine setup:
     using ibrav=0 with symmetry is DISCOURAGED, use correct ibrav instead

     Subspace diagonalization in iterative solution of the eigenvalue problem:
     a serial algorithm will be used

 
     Parallelization info
     --------------------
     sticks:   dense  smooth     PW     G-vecs:    dense   smooth      PW
     Min          39      39     11                 3707     3707     591
     Max          40      40     12                 3714     3714     606
     Sum         625     625    187                59367    59367    9611
 
     Using Slab Decomposition
 


     bravais-lattice index     =            0
     lattice parameter (alat)  =       6.1344  a.u.
     unit-cell volume          =     947.1615 (a.u.)^3
     number of atoms/cell      =            8
     number of atomic types    =            3
     number of electrons       =        36.00
     number of Kohn-Sham states=           25
     kinetic-energy cutoff     =      60.0000  Ry
     charge density cutoff     =     240.0000  Ry
     Exchange-correlation= VDW-DF2-B86R
                           (   1   4  26   0   2   0   0)

     celldm(1)=   6.134387  celldm(2)=   0.000000  celldm(3)=   0.000000
     celldm(4)=   0.000000  celldm(5)=   0.000000  celldm(6)=   0.000000

     crystal axes: (cart. coord. in units of alat)
               a(1) = (   0.865734   0.500504   0.000000 )  
               a(2) = (   0.865734  -0.500504   0.000000 )  
               a(3) = (   0.000000   0.000000   4.734656 )  

     reciprocal axes: (cart. coord. in units 2 pi/alat)
               b(1) = (  0.577544  0.998993  0.000000 )  
               b(2) = (  0.577544 -0.998993  0.000000 )  
               b(3) = (  0.000000  0.000000  0.211209 )  


     PseudoPot. # 1 for Al read from file:
     /home/mainadmin/research/danu/pseudo/Al.pbe-n-kjpaw_psl.1.0.0.UPF
     MD5 check sum: 502b6b27b9c6270cab5dd1084b96fa6d
     Pseudo is Projector augmented-wave + core cor, Zval =  3.0
     Generated using &quot;atomic&quot; code by A. Dal Corso  v.6.3
     Shape of augmentation charge: PSQ
     Using radial grid of 1135 points,  6 beta functions with: 
                l(1) =   0
                l(2) =   0
                l(3) =   1
                l(4) =   1
                l(5) =   2
                l(6) =   2
     Q(r) pseudized with 0 coefficients 


     PseudoPot. # 2 for O  read from file:
     /home/mainadmin/research/danu/pseudo/O.pbe-n-kjpaw_psl.1.0.0.UPF
     MD5 check sum: e99d9cef9b487d1ca56f5b95ecd0fd7a
     Pseudo is Projector augmented-wave + core cor, Zval =  6.0
     Generated using &quot;atomic&quot; code by A. Dal Corso  v.6.3
     Shape of augmentation charge: PSQ
     Using radial grid of 1095 points,  4 beta functions with: 
                l(1) =   0
                l(2) =   0
                l(3) =   1
                l(4) =   1
     Q(r) pseudized with 0 coefficients 


     PseudoPot. # 3 for S  read from file:
     /home/mainadmin/research/danu/pseudo/S.pbe-n-kjpaw_psl.1.0.0.UPF
     MD5 check sum: fb45dfebcf3e72a4e1bd4a866ec2e262
     Pseudo is Projector augmented-wave + core cor, Zval =  6.0
     Generated using &quot;atomic&quot; code by A. Dal Corso  v.6.3
     Shape of augmentation charge: PSQ
     Using radial grid of 1151 points,  6 beta functions with: 
                l(1) =   0
                l(2) =   0
                l(3) =   1
                l(4) =   1
                l(5) =   2
                l(6) =   2
     Q(r) pseudized with 0 coefficients 


     atomic species   valence    mass     pseudopotential
        Al             3.00    26.98100     Al( 1.00)
        O              6.00    15.99900     O ( 1.00)
        S              6.00    32.06500     S ( 1.00)

      2 Sym. Ops. (no inversion) found



   Cartesian axes

     site n.     atom                  positions (alat units)
         1           O   tau(   1) = (   1.1543123   0.0000000   0.0000000  )
         2           Al  tau(   2) = (   0.5771561   0.0000000   0.1520261  )
         3           Al  tau(   3) = (   0.5771561   0.0000000   0.9570787  )
         4           S   tau(   4) = (   1.1543123   0.0000000   1.3382956  )
         5           O   tau(   5) = (   1.1543123   0.0000000   2.3700954  )
         6           Al  tau(   6) = (   0.5771561   0.0000000   2.5208515  )
         7           Al  tau(   7) = (   0.5771561   0.0000000   3.3240144  )
         8           S   tau(   8) = (   1.1543123   0.0000000   3.7048867  )

     number of k points=    91
                       cart. coord. in units 2pi/alat
        k(    1) = (   0.0000000   0.0000000   0.0000000), wk =   0.0219780
        k(    2) = (   0.0192515   0.0110848   0.0000000), wk =   0.0219780
        k(    3) = (   0.0385030   0.0221697   0.0000000), wk =   0.0219780
        k(    4) = (   0.0577544   0.0332545   0.0000000), wk =   0.0219780
        k(    5) = (   0.0770059   0.0443393   0.0000000), wk =   0.0219780
        k(    6) = (   0.0962574   0.0554241   0.0000000), wk =   0.0219780
        k(    7) = (   0.1155089   0.0665090   0.0000000), wk =   0.0219780
        k(    8) = (   0.1347604   0.0775938   0.0000000), wk =   0.0219780
        k(    9) = (   0.1540119   0.0886786   0.0000000), wk =   0.0219780
        k(   10) = (   0.1732633   0.0997634   0.0000000), wk =   0.0219780
        k(   11) = (   0.1925148   0.1108483   0.0000000), wk =   0.0219780
        k(   12) = (   0.2117663   0.1219331   0.0000000), wk =   0.0219780
        k(   13) = (   0.2310178   0.1330179   0.0000000), wk =   0.0219780
        k(   14) = (   0.2502693   0.1441027   0.0000000), wk =   0.0219780
        k(   15) = (   0.2695208   0.1551876   0.0000000), wk =   0.0219780
        k(   16) = (   0.2887722   0.1662724   0.0000000), wk =   0.0219780
        k(   17) = (   0.3080237   0.1773572   0.0000000), wk =   0.0219780
        k(   18) = (   0.3272752   0.1884420   0.0000000), wk =   0.0219780
        k(   19) = (   0.3465267   0.1995269   0.0000000), wk =   0.0219780
        k(   20) = (   0.3657782   0.2106117   0.0000000), wk =   0.0219780
        k(   21) = (   0.3850296   0.2216965   0.0000000), wk =   0.0219780
        k(   22) = (   0.4042811   0.2327813   0.0000000), wk =   0.0219780
        k(   23) = (   0.4235326   0.2438662   0.0000000), wk =   0.0219780
        k(   24) = (   0.4427841   0.2549510   0.0000000), wk =   0.0219780
        k(   25) = (   0.4620356   0.2660358   0.0000000), wk =   0.0219780
        k(   26) = (   0.4812871   0.2771206   0.0000000), wk =   0.0219780
        k(   27) = (   0.5005385   0.2882055   0.0000000), wk =   0.0219780
        k(   28) = (   0.5197900   0.2992903   0.0000000), wk =   0.0219780
        k(   29) = (   0.5390415   0.3103751   0.0000000), wk =   0.0219780
        k(   30) = (   0.5582930   0.3214599   0.0000000), wk =   0.0219780
        k(   31) = (   0.5775445   0.3325448   0.0000000), wk =   0.0219780
        k(   32) = (   0.5775445   0.3214599   0.0000000), wk =   0.0219780
        k(   33) = (   0.5775445   0.3103751   0.0000000), wk =   0.0219780
        k(   34) = (   0.5775445   0.2992903   0.0000000), wk =   0.0219780
        k(   35) = (   0.5775445   0.2882055   0.0000000), wk =   0.0219780
        k(   36) = (   0.5775445   0.2771206   0.0000000), wk =   0.0219780
        k(   37) = (   0.5775445   0.2660358   0.0000000), wk =   0.0219780
        k(   38) = (   0.5775445   0.2549510   0.0000000), wk =   0.0219780
        k(   39) = (   0.5775445   0.2438662   0.0000000), wk =   0.0219780
        k(   40) = (   0.5775445   0.2327813   0.0000000), wk =   0.0219780
        k(   41) = (   0.5775445   0.2216965   0.0000000), wk =   0.0219780
        k(   42) = (   0.5775445   0.2106117   0.0000000), wk =   0.0219780
        k(   43) = (   0.5775445   0.1995269   0.0000000), wk =   0.0219780
        k(   44) = (   0.5775445   0.1884420   0.0000000), wk =   0.0219780
        k(   45) = (   0.5775445   0.1773572   0.0000000), wk =   0.0219780
        k(   46) = (   0.5775445   0.1662724   0.0000000), wk =   0.0219780
        k(   47) = (   0.5775445   0.1551876   0.0000000), wk =   0.0219780
        k(   48) = (   0.5775445   0.1441027   0.0000000), wk =   0.0219780
        k(   49) = (   0.5775445   0.1330179   0.0000000), wk =   0.0219780
        k(   50) = (   0.5775445   0.1219331   0.0000000), wk =   0.0219780
        k(   51) = (   0.5775445   0.1108483   0.0000000), wk =   0.0219780
        k(   52) = (   0.5775445   0.0997634   0.0000000), wk =   0.0219780
        k(   53) = (   0.5775445   0.0886786   0.0000000), wk =   0.0219780
        k(   54) = (   0.5775445   0.0775938   0.0000000), wk =   0.0219780
        k(   55) = (   0.5775445   0.0665090   0.0000000), wk =   0.0219780
        k(   56) = (   0.5775445   0.0554241   0.0000000), wk =   0.0219780
        k(   57) = (   0.5775445   0.0443393   0.0000000), wk =   0.0219780
        k(   58) = (   0.5775445   0.0332545   0.0000000), wk =   0.0219780
        k(   59) = (   0.5775445   0.0221697   0.0000000), wk =   0.0219780
        k(   60) = (   0.5775445   0.0110848   0.0000000), wk =   0.0219780
        k(   61) = (   0.5775445   0.0000000   0.0000000), wk =   0.0219780
        k(   62) = (   0.5582930   0.0000000   0.0000000), wk =   0.0219780
        k(   63) = (   0.5390415   0.0000000   0.0000000), wk =   0.0219780
        k(   64) = (   0.5197900   0.0000000   0.0000000), wk =   0.0219780
        k(   65) = (   0.5005385   0.0000000   0.0000000), wk =   0.0219780
        k(   66) = (   0.4812871   0.0000000   0.0000000), wk =   0.0219780
        k(   67) = (   0.4620356   0.0000000   0.0000000), wk =   0.0219780
        k(   68) = (   0.4427841   0.0000000   0.0000000), wk =   0.0219780
        k(   69) = (   0.4235326   0.0000000   0.0000000), wk =   0.0219780
        k(   70) = (   0.4042811   0.0000000   0.0000000), wk =   0.0219780
        k(   71) = (   0.3850296   0.0000000   0.0000000), wk =   0.0219780
        k(   72) = (   0.3657782   0.0000000   0.0000000), wk =   0.0219780
        k(   73) = (   0.3465267   0.0000000   0.0000000), wk =   0.0219780
        k(   74) = (   0.3272752   0.0000000   0.0000000), wk =   0.0219780
        k(   75) = (   0.3080237   0.0000000   0.0000000), wk =   0.0219780
        k(   76) = (   0.2887722   0.0000000   0.0000000), wk =   0.0219780
        k(   77) = (   0.2695208   0.0000000   0.0000000), wk =   0.0219780
        k(   78) = (   0.2502693   0.0000000   0.0000000), wk =   0.0219780
        k(   79) = (   0.2310178   0.0000000   0.0000000), wk =   0.0219780
        k(   80) = (   0.2117663   0.0000000   0.0000000), wk =   0.0219780
        k(   81) = (   0.1925148   0.0000000   0.0000000), wk =   0.0219780
        k(   82) = (   0.1732633   0.0000000   0.0000000), wk =   0.0219780
        k(   83) = (   0.1540119   0.0000000   0.0000000), wk =   0.0219780
        k(   84) = (   0.1347604   0.0000000   0.0000000), wk =   0.0219780
        k(   85) = (   0.1155089   0.0000000   0.0000000), wk =   0.0219780
        k(   86) = (   0.0962574   0.0000000   0.0000000), wk =   0.0219780
        k(   87) = (   0.0770059   0.0000000   0.0000000), wk =   0.0219780
        k(   88) = (   0.0577544   0.0000000   0.0000000), wk =   0.0219780
        k(   89) = (   0.0385030   0.0000000   0.0000000), wk =   0.0219780
        k(   90) = (   0.0192515   0.0000000   0.0000000), wk =   0.0219780
        k(   91) = (   0.0000000   0.0000000   0.0000000), wk =   0.0219780

     Dense  grid:    59367 G-vectors     FFT dimensions: (  32,  32, 144)

     Estimated max dynamical RAM per process >      16.92 MB

     Estimated total dynamical RAM >     270.75 MB

     Check: negative core charge=   -0.000004

     The potential is recalculated from file :
     ./work/Al2SO.save/charge-density



     %%%%%%%%%%%%%%%%%%%%%%%%%%%%%%%%%%%%%%%%%%%%%%%%%%%%%%%%%%%%%%%%%%%%%%%%
     %                                                                      %
     % You are using vdW-DF, which was implemented by the Thonhauser group. %
     % Please cite the following two papers that made this development      %
     % possible and the two reviews that describe the various versions:     %
     %                                                                      %
     %   T. Thonhauser et al., PRL 115, 136402 (2015).                      %
     %   T. Thonhauser et al., PRB 76, 125112 (2007).                       %
     %   K. Berland et al., Rep. Prog. Phys. 78, 066501 (2015).             %
     %   D.C. Langreth et al., J. Phys.: Condens. Matter 21, 084203 (2009). %
     %                                                                      %
     %                                                                      %
     % If you are calculating the stress with vdW-DF, please also cite:     %
     %                                                                      %
     %   R. Sabatini et al., J. Phys.: Condens. Matter 24, 424209 (2012).   %
     %                                                                      %
     %%%%%%%%%%%%%%%%%%%%%%%%%%%%%%%%%%%%%%%%%%%%%%%%%%%%%%%%%%%%%%%%%%%%%%%%


     Starting wfcs are   32 randomized atomic wfcs
     Checking if some PAW data can be deallocated... 

     Band Structure Calculation
     Davidson diagonalization with overlap
     c_bands:  1 eigenvalues not converged
     c_bands:  1 eigenvalues not converged
     c_bands:  1 eigenvalues not converged
     c_bands:  1 eigenvalues not converged
     c_bands:  1 eigenvalues not converged
     c_bands:  1 eigenvalues not converged
     c_bands:  1 eigenvalues not converged
     c_bands:  1 eigenvalues not converged
     c_bands:  1 eigenvalues not converged
     c_bands:  1 eigenvalues not converged
     c_bands:  1 eigenvalues not converged
     c_bands:  1 eigenvalues not converged
     c_bands:  1 eigenvalues not converged
     c_bands:  1 eigenvalues not converged
     c_bands:  1 eigenvalues not converged
     c_bands:  1 eigenvalues not converged
     c_bands:  1 eigenvalues not converged
     c_bands:  1 eigenvalues not converged
     c_bands:  1 eigenvalues not converged
     c_bands:  1 eigenvalues not converged
     c_bands:  1 eigenvalues not converged
     c_bands:  1 eigenvalues not converged
     c_bands:  1 eigenvalues not converged
     c_bands:  1 eigenvalues not converged
     c_bands:  1 eigenvalues not converged
     c_bands:  1 eigenvalues not converged
     c_bands:  1 eigenvalues not converged
     c_bands:  1 eigenvalues not converged
     c_bands:  1 eigenvalues not converged
     c_bands:  1 eigenvalues not converged
     c_bands:  1 eigenvalues not converged
     c_bands:  1 eigenvalues not converged
     c_bands:  2 eigenvalues not converged
     c_bands:  2 eigenvalues not converged
     c_bands:  1 eigenvalues not converged
     c_bands:  1 eigenvalues not converged
     c_bands:  1 eigenvalues not converged
     c_bands:  1 eigenvalues not converged
     c_bands:  1 eigenvalues not converged
     c_bands:  1 eigenvalues not converged
     c_bands:  1 eigenvalues not converged
     c_bands:  1 eigenvalues not converged
     c_bands:  1 eigenvalues not converged
     c_bands:  1 eigenvalues not converged
     c_bands:  1 eigenvalues not converged
     c_bands:  1 eigenvalues not converged
     c_bands:  1 eigenvalues not converged
     c_bands:  1 eigenvalues not converged
     c_bands:  1 eigenvalues not converged
     c_bands:  1 eigenvalues not converged
     c_bands:  1 eigenvalues not converged
     c_bands:  1 eigenvalues not converged
     c_bands:  1 eigenvalues not converged
     c_bands:  1 eigenvalues not converged
     c_bands:  1 eigenvalues not converged
     c_bands:  2 eigenvalues not converged
     c_bands:  1 eigenvalues not converged
     c_bands:  1 eigenvalues not converged
     c_bands:  1 eigenvalues not converged
     c_bands:  1 eigenvalues not converged
     c_bands:  1 eigenvalues not converged
     c_bands:  1 eigenvalues not converged
     c_bands:  1 eigenvalues not converged
     c_bands:  1 eigenvalues not converged
     c_bands:  1 eigenvalues not converged
     c_bands:  1 eigenvalues not converged
     c_bands:  1 eigenvalues not converged
     c_bands:  1 eigenvalues not converged
     c_bands:  1 eigenvalues not converged
     c_bands:  1 eigenvalues not converged
     c_bands:  1 eigenvalues not converged
     c_bands:  1 eigenvalues not converged
     c_bands:  1 eigenvalues not converged
     c_bands:  1 eigenvalues not converged

     ethr =  2.78E-11,  avg # of iterations =118.5

     total cpu time spent up to now is      108.0 secs

     End of band structure calculation

          k = 0.0000 0.0000 0.0000 (  7397 PWs)   bands (ev):

   -14.5120 -14.5071  -9.0024  -8.9913  -1.5904  -1.2592   0.1614   0.4483
     0.4519   0.4561   0.4597   1.0694   2.7524   3.8145   4.8329   4.8419
     4.8430   4.8519   6.1571   7.0662  10.0531  11.2236  11.3638  11.7959
    12.3206

          k = 0.0193 0.0111 0.0000 (  7415 PWs)   bands (ev):

   -14.5102 -14.5053  -8.9976  -8.9864  -1.5859  -1.2558   0.1652   0.4347
     0.4436   0.4473   0.4551   1.0735   2.7636   3.8215   4.8053   4.8146
     4.8288   4.8377   6.1720   7.0781  10.0569  11.2496  11.3879  11.7893
    12.3112

          k = 0.0385 0.0222 0.0000 (  7431 PWs)   bands (ev):

   -14.5047 -14.4998  -8.9830  -8.9719  -1.5726  -1.2459   0.1767   0.3853
     0.4032   0.4409   0.4487   1.0853   2.7959   3.8413   4.7061   4.7173
     4.8056   4.8146   6.2156   7.1133  10.0666  11.3210  11.4559  11.7687
    12.2357

          k = 0.0578 0.0333 0.0000 (  7443 PWs)   bands (ev):

   -14.4957 -14.4908  -8.9589  -8.9478  -1.5506  -1.2302   0.1955   0.3063
     0.3411   0.4303   0.4381   1.1039   2.8460   3.8713   4.5500   4.5642
     4.7678   4.7767   6.2849   7.1707  10.0787  11.4155  11.5545  11.7335
    12.1157

          k = 0.0770 0.0443 0.0000 (  7449 PWs)   bands (ev):

   -14.4831 -14.4783  -8.9252  -8.9141  -1.5205  -1.2098   0.2043   0.2208
     0.2626   0.4155   0.4232   1.1282   2.9093   3.9052   4.3523   4.3668
     4.7145   4.7234   6.3771   7.2484  10.0890  11.4779  11.6514  11.7007
    11.9856

          k = 0.0963 0.0554 0.0000 (  7461 PWs)   bands (ev):

   -14.4673 -14.4624  -8.8822  -8.8711  -1.4834  -1.1868   0.0871   0.1677
     0.2573   0.3961   0.4038   1.1576   2.9800   3.9174   4.1345   4.1506
     4.6453   4.6543   6.4900   7.3443  10.0946  11.4203  11.6435  11.7041
    11.9383

          k = 0.1155 0.0665 0.0000 (  7467 PWs)   bands (ev):

   -14.4483 -14.4434  -8.8300  -8.8190  -1.4406  -1.1643  -0.0395   0.0720
     0.2973   0.3720   0.3797   1.1916   3.0498   3.7786   3.8892   4.0743
     4.5601   4.5690   6.6218   7.4558  10.0933  11.2685  11.4856  11.6725
    12.0202

          k = 0.1348 0.0776 0.0000 (  7475 PWs)   bands (ev):

   -14.4263 -14.4215  -8.7689  -8.7580  -1.3947  -1.1470  -0.1688  -0.0203
     0.3405   0.3457   0.3520   1.2295   3.0991   3.5180   3.6511   4.1059
     4.4586   4.4675   6.7706   7.5802  10.0829  11.0723  11.2834  11.5858
    12.0908

          k = 0.1540 0.0887 0.0000 (  7471 PWs)   bands (ev):

   -14.4017 -14.3969  -8.6993  -8.6884  -1.3498  -1.1413  -0.2928  -0.0990
     0.3088   0.3164   0.3982   1.2707   3.0628   3.2320   3.4924   4.1530
     4.3412   4.3500   6.9345   7.7141  10.0606  10.8514  11.0710  11.4683
    12.1466

          k = 0.1733 0.0998 0.0000 (  7481 PWs)   bands (ev):

   -14.3748 -14.3700  -8.6214  -8.6105  -1.3128  -1.1544  -0.4021  -0.1541
     0.2694   0.2771   0.4569   1.3135   2.8775   2.9390   3.4817   4.1883
     4.2117   4.2271   7.1118   7.8541  10.0214  10.6155  10.8613  11.3299
    12.1625

          k = 0.1925 0.1108 0.0000 (  7493 PWs)   bands (ev):

   -14.3458 -14.3409  -8.5357  -8.5249  -1.2943  -1.1916  -0.4838  -0.1781
     0.2246   0.2322   0.5203   1.3554   2.6252   2.6471   3.5425   4.0561
     4.0660   4.2567   7.3006   7.9963   9.9572  10.3700  10.6663  11.1744
    12.0324

          k = 0.2118 0.1219 0.0000 (  7477 PWs)   bands (ev):

   -14.3151 -14.3103  -8.4428  -8.4321  -1.3060  -1.2529  -0.5246  -0.1698
     0.1741   0.1816   0.5871   1.3908   2.3583   2.3704   3.6223   3.8934
     3.9035   4.3031   7.4993   8.1361   9.8571  10.1189  10.5000  11.0036
    11.8120

          k = 0.2310 0.1330 0.0000 (  7475 PWs)   bands (ev):

   -14.2831 -14.2783  -8.3434  -8.3327  -1.3527  -1.3331  -0.5190  -0.1338
     0.1178   0.1253   0.6550   1.4063   2.0869   2.1347   3.6942   3.7193
     3.7391   4.3471   7.7062   8.2681   9.7141   9.8651  10.3725  10.8196
    11.6407

          k = 0.2503 0.1441 0.0000 (  7469 PWs)   bands (ev):

   -14.2501 -14.2454  -8.2380  -8.2274  -1.4281  -1.4234  -0.4738  -0.0785
     0.0558   0.0633   0.7200   1.3715   1.8354   1.9613   3.5282   3.5373
     3.7976   4.3875   7.9200   8.3856   9.5346   9.6114  10.2824  10.6260
    11.4446

          k = 0.2695 0.1552 0.0000 (  7451 PWs)   bands (ev):

   -14.2167 -14.2120  -8.1277  -8.1171  -1.5223  -1.5146  -0.4021  -0.0219
    -0.0092   0.0015   0.7741   1.2543   1.6184   1.8857   3.3308   3.3403
     3.8806   4.4236   8.1394   8.4808   9.3341   9.3599  10.2217  10.4281
    11.3103

          k = 0.2888 0.1663 0.0000 (  7467 PWs)   bands (ev):

   -14.1833 -14.1785  -8.0133  -8.0028  -1.6178  -1.6083  -0.3163  -0.0867
    -0.0794   0.0533   0.8016   1.0781   1.4597   1.8893   3.1252   3.1351
     3.9599   4.4548   8.3632   8.5429   9.1115   9.1307  10.1851  10.2325
    11.1649

          k = 0.3080 0.1774 0.0000 (  7455 PWs)   bands (ev):

   -14.1502 -14.1454  -7.8960  -7.8856  -1.7087  -1.6997  -0.2287  -0.1651
    -0.1577   0.0990   0.7887   0.8898   1.3877   1.9313   2.9135   2.9239
     4.0336   4.4805   8.5536   8.5896   8.8697   8.9454  10.0456  10.1711
    11.0184

          k = 0.3273 0.1884 0.0000 (  7443 PWs)   bands (ev):

   -14.1179 -14.1131  -7.7771  -7.7667  -1.7921  -1.7843  -0.2518  -0.2442
    -0.1458   0.1035   0.7205   0.7588   1.4006   1.9910   2.6975   2.7086
     4.1001   4.5002   8.4776   8.6314   8.8188   8.8221   9.8745  10.1760
    10.8781

          k = 0.3465 0.1995 0.0000 (  7435 PWs)   bands (ev):

   -14.0868 -14.0820  -7.6581  -7.6478  -1.8658  -1.8592  -0.3410  -0.3335
    -0.0993   0.0506   0.5983   0.7576   1.4667   2.0596   2.4792   2.4916
     4.1581   4.5135   8.3156   8.4038   8.7659   9.0446   9.7268  10.1939
    10.7435

          k = 0.3658 0.2106 0.0000 (  7427 PWs)   bands (ev):

   -14.0572 -14.0525  -7.5406  -7.5303  -1.9286  -1.9224  -0.4350  -0.4276
    -0.1081  -0.0465   0.5492   0.7958   1.5610   2.1289   2.2608   2.2789
     4.2069   4.5205   8.1191   8.1836   8.7407   9.2532   9.6190  10.2157
    10.6147

          k = 0.3850 0.2217 0.0000 (  7416 PWs)   bands (ev):

   -14.0296 -14.0249  -7.4263  -7.4160  -1.9793  -1.9724  -0.5331  -0.5256
    -0.1722  -0.1594   0.5723   0.8566   1.6705   2.0391   2.0478   2.2267
     4.2460   4.5214   7.9157   7.9728   8.7290   9.3668   9.6312  10.2328
    10.4919

          k = 0.4043 0.2328 0.0000 (  7420 PWs)   bands (ev):

   -14.0042 -13.9995  -7.3171  -7.3069  -2.0169  -2.0085  -0.6344  -0.6267
    -0.2730  -0.2564   0.6372   0.9248   1.7723   1.8315   1.8476   2.3050
     4.2759   4.5169   7.7152   7.7722   8.7304   9.3423   9.8061  10.2385
    10.3762

          k = 0.4235 0.2439 0.0000 (  7424 PWs)   bands (ev):

   -13.9813 -13.9766  -7.2150  -7.2047  -2.0405  -2.0303  -0.7381  -0.7303
    -0.3689  -0.3420   0.7175   0.9918   1.6074   1.6234   1.9234   2.3886
     4.2979   4.5084   7.5223   7.5833   8.7469   9.3053  10.0144  10.2273
    10.2721

          k = 0.4428 0.2550 0.0000 (  7424 PWs)   bands (ev):

   -13.9611 -13.9564  -7.1218  -7.1116  -2.0497  -2.0378  -0.8434  -0.8353
    -0.4444  -0.4118   0.7987   1.0531   1.4021   1.4182   2.0469   2.4726
     4.3141   4.4980   7.3404   7.4076   8.7792   9.2893  10.1439  10.2055
    10.2479

          k = 0.4620 0.2660 0.0000 (  7412 PWs)   bands (ev):

   -13.9436 -13.9390  -7.0392  -7.0290  -2.0445  -2.0310  -0.9491  -0.9408
    -0.4953  -0.4596   0.8734   1.1064   1.2028   1.2199   2.1668   2.5540
     4.3270   4.4878   7.1725   7.2471   8.8256   9.2982  10.0637  10.1710
    10.4267

          k = 0.4813 0.2771 0.0000 (  7400 PWs)   bands (ev):

   -13.9291 -13.9244  -6.9688  -6.9585  -2.0255  -2.0106  -1.0540  -1.0454
    -0.5199  -0.4823   0.9368   1.0122   1.0314   1.1508   2.2768   2.6295
     4.3396   4.4805   7.0218   7.1042   8.8822   9.3300   9.9873  10.1237
    10.4689

          k = 0.5005 0.2882 0.0000 (  7398 PWs)   bands (ev):

   -13.9175 -13.9128  -6.9114  -6.9011  -1.9935  -1.9776  -1.1564  -1.1475
    -0.5182  -0.4797   0.8330   0.8511   0.9916   1.1860   2.3715   2.6954
     4.3537   4.4778   6.8918   6.9817   8.9423   9.3779   9.9304  10.0757
    10.4083

          k = 0.5198 0.2993 0.0000 (  7396 PWs)   bands (ev):

   -13.9088 -13.9041  -6.8676  -6.8574  -1.9511  -1.9345  -1.2536  -1.2443
    -0.4930  -0.4539   0.6699   0.6896   1.0303   1.2122   2.4467   2.7481
     4.3700   4.4804   6.7863   6.8827   8.9972   9.4281   9.9065  10.0380
    10.3538

          k = 0.5390 0.3104 0.0000 (  7420 PWs)   bands (ev):

   -13.9028 -13.8981  -6.8374  -6.8272  -1.9029  -1.8859  -1.3406  -1.3311
    -0.4513  -0.4120   0.5305   0.5511   1.0568   1.2299   2.4997   2.7854
     4.3867   4.4869   6.7092   6.8102   9.0375   9.4624   9.9312  10.0204
    10.3056

          k = 0.5583 0.3215 0.0000 (  7426 PWs)   bands (ev):

   -13.8993 -13.8947  -6.8202  -6.8099  -1.8593  -1.8421  -1.4072  -1.3976
    -0.4078  -0.3683   0.4291   0.4502   1.0717   1.2399   2.5302   2.8069
     4.4000   4.4940   6.6630   6.7667   9.0586   9.4736   9.9981  10.0272
    10.2675

          k = 0.5775 0.3325 0.0000 (  7408 PWs)   bands (ev):

   -13.8983 -13.8936  -6.8148  -6.8046  -1.8397  -1.8223  -1.4344  -1.4249
    -0.3870  -0.3474   0.3893   0.4105   1.0762   1.2430   2.5396   2.8135
     4.4053   4.4972   6.6483   6.7526   9.0635   9.4737  10.0223  10.0658
    10.2513

          k = 0.5775 0.3215 0.0000 (  7414 PWs)   bands (ev):

   -13.8985 -13.8938  -6.8160  -6.8057  -1.8454  -1.8280  -1.4268  -1.4172
    -0.3935  -0.3540   0.4005   0.4217   1.0752   1.2424   2.5376   2.8121
     4.4039   4.4963   6.6515   6.7558   9.0630   9.4745  10.0179  10.0479
    10.2550

          k = 0.5775 0.3104 0.0000 (  7422 PWs)   bands (ev):

   -13.8992 -13.8945  -6.8195  -6.8092  -1.8613  -1.8440  -1.4054  -1.3959
    -0.4120  -0.3725   0.4327   0.4537   1.0724   1.2403   2.5315   2.8079
     4.3992   4.4931   6.6608   6.7651   9.0630   9.4781   9.9866  10.0207
    10.2673

          k = 0.5775 0.2993 0.0000 (  7430 PWs)   bands (ev):

   -13.9004 -13.8957  -6.8252  -6.8149  -1.8853  -1.8680  -1.3725  -1.3630
    -0.4410  -0.4015   0.4840   0.5046   1.0679   1.2371   2.5221   2.8013
     4.3912   4.4872   6.6752   6.7798   9.0652   9.4856   9.9273  10.0027
    10.2852

          k = 0.5775 0.2882 0.0000 (  7430 PWs)   bands (ev):

   -13.9019 -13.8973  -6.8328  -6.8225  -1.9148  -1.8974  -1.3307  -1.3214
    -0.4780  -0.4384   0.5516   0.5714   1.0623   1.2328   2.5097   2.7927
     4.3799   4.4787   6.6932   6.7988   9.0714   9.4976   9.8613   9.9825
    10.3056

          k = 0.5775 0.2771 0.0000 (  7420 PWs)   bands (ev):

   -13.9039 -13.8992  -6.8422  -6.8319  -1.9478  -1.9302  -1.2823  -1.2732
    -0.5206  -0.4808   0.6327   0.6510   1.0560   1.2276   2.4949   2.7824
     4.3655   4.4677   6.7133   6.8210   9.0833   9.5144   9.7946   9.9598
    10.3255

          k = 0.5775 0.2660 0.0000 (  7416 PWs)   bands (ev):

   -13.9062 -13.9015  -6.8530  -6.8428  -1.9827  -1.9649  -1.2290  -1.2201
    -0.5666  -0.5264   0.7245   0.7399   1.0504   1.2218   2.4781   2.7708
     4.3482   4.4542   6.7338   6.8452   9.1024   9.5343   9.7316   9.9355
    10.3424

          k = 0.5775 0.2550 0.0000 (  7408 PWs)   bands (ev):

   -13.9088 -13.9041  -6.8651  -6.8549  -2.0185  -2.0005  -1.1719  -1.1633
    -0.6145  -0.5739   0.8241   0.8339   1.0486   1.2156   2.4599   2.7582
     4.3285   4.4384   6.7531   6.8701   9.1297   9.5486   9.6824   9.9105
    10.3548

          k = 0.5775 0.2439 0.0000 (  7396 PWs)   bands (ev):

   -13.9116 -13.9069  -6.8783  -6.8681  -2.0546  -2.0363  -1.1120  -1.1037
    -0.6630  -0.6219   0.9144   0.9341   1.0629   1.2100   2.4406   2.7448
     4.3067   4.4208   6.7697   6.8945   9.1662   9.5320   9.6734   9.8856
    10.3616

          k = 0.5775 0.2328 0.0000 (  7408 PWs)   bands (ev):

   -13.9146 -13.9100  -6.8923  -6.8821  -2.0904  -2.0718  -1.0502  -1.0421
    -0.7113  -0.6697   0.9579   1.0426   1.1236   1.2076   2.4209   2.7309
     4.2832   4.4016   6.7825   6.9172   9.2120   9.4830   9.7067   9.8614
    10.3623

          k = 0.5775 0.2217 0.0000 (  7390 PWs)   bands (ev):

   -13.9179 -13.9132  -6.9070  -6.8967  -2.1256  -2.1066  -0.9869  -0.9791
    -0.7587  -0.7166   0.9637   1.1342   1.2239   1.2294   2.4012   2.7169
     4.2585   4.3812   6.7903   6.9375   9.2667   9.4239   9.7599   9.8392
    10.3570

          k = 0.5775 0.2106 0.0000 (  7386 PWs)   bands (ev):

   -13.9212 -13.9165  -6.9221  -6.9118  -2.1598  -2.1405  -0.9234  -0.9162
    -0.8037  -0.7615   0.9572   1.1596   1.3159   1.3451   2.3820   2.7030
     4.2329   4.3599   6.7926   6.9543   9.3285   9.3633   9.8182   9.8268
    10.3463

          k = 0.5775 0.1995 0.0000 (  7392 PWs)   bands (ev):

   -13.9247 -13.9200  -6.9375  -6.9272  -2.1930  -2.1733  -0.8703  -0.8622
    -0.8314  -0.8003   0.9468   1.1571   1.4351   1.4708   2.3640   2.6894
     4.2069   4.3380   6.7892   6.9673   9.3021   9.3950   9.8070   9.8984
    10.3311

          k = 0.5775 0.1884 0.0000 (  7408 PWs)   bands (ev):

   -13.9282 -13.9235  -6.9529  -6.9427  -2.2250  -2.2049  -0.8990  -0.8587
    -0.7841  -0.7781   0.9346   1.1498   1.5598   1.6005   2.3484   2.6764
     4.1807   4.3159   6.7800   6.9761   9.2430   9.4582   9.8052   9.9774
    10.3133

          k = 0.5775 0.1774 0.0000 (  7412 PWs)   bands (ev):

   -13.9317 -13.9270  -6.9683  -6.9580  -2.2555  -2.2351  -0.9390  -0.8957
    -0.7222  -0.7154   0.9218   1.1412   1.6843   1.7324   2.3367   2.6644
     4.1548   4.2937   6.7655   6.9805   9.1854   9.5085   9.8214  10.0573
    10.2955

          k = 0.5775 0.1663 0.0000 (  7404 PWs)   bands (ev):

   -13.9352 -13.9305  -6.9835  -6.9732  -2.2846  -2.2638  -0.9780  -0.9337
    -0.6587  -0.6517   0.9087   1.1321   1.8043   1.8651   2.3320   2.6539
     4.1292   4.2719   6.7460   6.9807   9.1297   9.5367   9.8592  10.1244
    10.2832

          k = 0.5775 0.1552 0.0000 (  7408 PWs)   bands (ev):

   -13.9387 -13.9340  -6.9983  -6.9880  -2.3121  -2.2910  -1.0150  -0.9700
    -0.5959  -0.5888   0.8955   1.1227   1.9129   1.9969   2.3400   2.6457
     4.1044   4.2506   6.7222   6.9767   9.0760   9.5438   9.9066  10.1389
    10.2859

          k = 0.5775 0.1441 0.0000 (  7404 PWs)   bands (ev):

   -13.9420 -13.9374  -7.0126  -7.0023  -2.3380  -2.3165  -1.0498  -1.0042
    -0.5345  -0.5274   0.8825   1.1135   1.9996   2.1254   2.3707   2.6412
     4.0804   4.2299   6.6949   6.9689   9.0243   9.5371   9.9403  10.0875
    10.3148

          k = 0.5775 0.1330 0.0000 (  7404 PWs)   bands (ev):

   -13.9453 -13.9406  -7.0262  -7.0160  -2.3622  -2.3404  -1.0824  -1.0362
    -0.4750  -0.4680   0.8699   1.1044   2.0545   2.2466   2.4328   2.6435
     4.0576   4.2102   6.6647   6.9577   8.9746   9.5230   9.9443  10.0109
    10.3764

          k = 0.5775 0.1219 0.0000 (  7396 PWs)   bands (ev):

   -13.9484 -13.9437  -7.0392  -7.0289  -2.3846  -2.3625  -1.1125  -1.0658
    -0.4180  -0.4110   0.8578   1.0955   2.0801   2.3528   2.5228   2.6594
     4.0360   4.1915   6.6324   6.9437   8.9271   9.5045   9.9178   9.9302
    10.4513

          k = 0.5775 0.1108 0.0000 (  7394 PWs)   bands (ev):

   -13.9513 -13.9466  -7.0514  -7.0411  -2.4052  -2.3829  -1.1401  -1.0930
    -0.3639  -0.3569   0.8462   1.0871   2.0879   2.4308   2.6281   2.7009
     4.0158   4.1740   6.5989   6.9275   8.8816   9.4832   9.8361   9.8835
    10.4886

          k = 0.5775 0.0998 0.0000 (  7408 PWs)   bands (ev):

   -13.9541 -13.9494  -7.0626  -7.0523  -2.4240  -2.4014  -1.1652  -1.1177
    -0.3132  -0.3062   0.8354   1.0791   2.0869   2.4734   2.7384   2.7740
     3.9971   4.1578   6.5649   6.9095   8.8381   9.4594   9.7470   9.8319
    10.4621

          k = 0.5775 0.0887 0.0000 (  7404 PWs)   bands (ev):

   -13.9566 -13.9519  -7.0729  -7.0626  -2.4408  -2.4181  -1.1878  -1.1399
    -0.2664  -0.2593   0.8253   1.0717   2.0818   2.4913   2.8476   2.8668
     3.9800   4.1431   6.5311   6.8905   8.7967   9.4326   9.6588   9.7740
    10.3957

          k = 0.5775 0.0776 0.0000 (  7416 PWs)   bands (ev):

   -13.9588 -13.9541  -7.0821  -7.0718  -2.4558  -2.4328  -1.2078  -1.1596
    -0.2237  -0.2166   0.8161   1.0649   2.0750   2.4975   2.9518   2.9646
     3.9647   4.1298   6.4984   6.8711   8.7574   9.4019   9.5742   9.7144
    10.3248

          k = 0.5775 0.0665 0.0000 (  7420 PWs)   bands (ev):

   -13.9608 -13.9561  -7.0902  -7.0799  -2.4688  -2.4457  -1.2252  -1.1767
    -0.1858  -0.1786   0.8079   1.0588   2.0678   2.4987   3.0483   3.0588
     3.9512   4.1182   6.4676   6.8522   8.7206   9.3665   9.4958   9.6589
    10.2639

          k = 0.5775 0.0554 0.0000 (  7426 PWs)   bands (ev):

   -13.9625 -13.9579  -7.0972  -7.0869  -2.4799  -2.4566  -1.2399  -1.1911
    -0.1529  -0.1457   0.8008   1.0535   2.0610   2.4978   3.1349   3.1445
     3.9396   4.1082   6.4396   6.8344   8.6868   9.3266   9.4260   9.6122
    10.2148

          k = 0.5775 0.0443 0.0000 (  7424 PWs)   bands (ev):

   -13.9640 -13.9593  -7.1029  -7.0926  -2.4889  -2.4655  -1.2520  -1.2030
    -0.1255  -0.1183   0.7949   1.0490   2.0550   2.4962   3.2094   3.2188
     3.9300   4.0999   6.4151   6.8184   8.6567   9.2849   9.3669   9.5764
    10.1771

          k = 0.5775 0.0333 0.0000 (  7424 PWs)   bands (ev):

   -13.9651 -13.9604  -7.1074  -7.0971  -2.4960  -2.4725  -1.2614  -1.2123
    -0.1038  -0.0966   0.7901   1.0455   2.0501   2.4945   3.2698   3.2790
     3.9224   4.0934   6.3950   6.8051   8.6315   9.2459   9.3200   9.5511
    10.1493

          k = 0.5775 0.0222 0.0000 (  7414 PWs)   bands (ev):

   -13.9659 -13.9612  -7.1106  -7.1004  -2.5011  -2.4775  -1.2681  -1.2189
    -0.0880  -0.0808   0.7867   1.0429   2.0465   2.4931   3.3143   3.3236
     3.9169   4.0888   6.3800   6.7950   8.6123   9.2144   9.2860   9.5345
    10.1302

          k = 0.5775 0.0111 0.0000 (  7418 PWs)   bands (ev):

   -13.9664 -13.9617  -7.1126  -7.1023  -2.5041  -2.4805  -1.2721  -1.2228
    -0.0785  -0.0713   0.7846   1.0414   2.0443   2.4922   3.3416   3.3509
     3.9135   4.0859   6.3707   6.7887   8.6002   9.1940   9.2655   9.5252
    10.1194

          k = 0.5775 0.0000 0.0000 (  7426 PWs)   bands (ev):

   -13.9666 -13.9619  -7.1132  -7.1030  -2.5051  -2.4815  -1.2735  -1.2242
    -0.0754  -0.0681   0.7839   1.0408   2.0436   2.4919   3.3508   3.3601
     3.9124   4.0850   6.3676   6.7866   8.5961   9.1870   9.2587   9.5222
    10.1154

          k = 0.5583 0.0000 0.0000 (  7420 PWs)   bands (ev):

   -13.9682 -13.9635  -7.1214  -7.1111  -2.4993  -2.4761  -1.2589  -1.2100
    -0.0741  -0.0668   0.7751   1.0350   2.0297   2.4819   3.3539   3.3632
     3.9213   4.0957   6.3759   6.7948   8.6035   9.1877   9.2634   9.5341
    10.1180

          k = 0.5390 0.0000 0.0000 (  7416 PWs)   bands (ev):

   -13.9730 -13.9684  -7.1457  -7.1354  -2.4821  -2.4599  -1.2157  -1.1678
    -0.0701  -0.0629   0.7493   1.0175   1.9898   2.4535   3.3631   3.3724
     3.9459   4.1261   6.4013   6.8199   8.6247   9.1903   9.2776   9.5692
    10.1255

          k = 0.5198 0.0000 0.0000 (  7405 PWs)   bands (ev):

   -13.9811 -13.9764  -7.1851  -7.1748  -2.4536  -2.4331  -1.1450  -1.0986
    -0.0636  -0.0563   0.7074   0.9887   1.9280   2.4101   3.3785   3.3878
     3.9807   4.1712   6.4452   6.8632   8.6569   9.1955   9.3016   9.6253
    10.1385

          k = 0.5005 0.0000 0.0000 (  7411 PWs)   bands (ev):

   -13.9922 -13.9875  -7.2384  -7.2281  -2.4142  -2.3959  -1.0484  -1.0043
    -0.0545  -0.0473   0.6517   0.9492   1.8501   2.3563   3.3999   3.4092
     4.0187   4.2244   6.5097   6.9263   8.6955   9.2035   9.3360   9.7001
    10.1495

          k = 0.4813 0.0000 0.0000 (  7405 PWs)   bands (ev):

   -14.0062 -14.0015  -7.3039  -7.2936  -2.3645  -2.3487  -0.9285  -0.8875
    -0.0430  -0.0358   0.5851   0.9001   1.7618   2.2960   3.4273   3.4365
     4.0530   4.2792   6.5964   7.0108   8.7335   9.2137   9.3823   9.7909
    10.1483

          k = 0.4620 0.0000 0.0000 (  7427 PWs)   bands (ev):

   -14.0229 -14.0182  -7.3796  -7.3694  -2.3050  -2.2918  -0.7884  -0.7518
    -0.0292  -0.0219   0.5116   0.8430   1.6682   2.2323   3.4605   3.4697
     4.0782   4.3302   6.7064   7.1178   8.7626   9.2244   9.4424   9.8947
    10.1522

          k = 0.4428 0.0000 0.0000 (  7419 PWs)   bands (ev):

   -14.0421 -14.0374  -7.4638  -7.4535  -2.2363  -2.2257  -0.6323  -0.6032
    -0.0131  -0.0058   0.4376   0.7807   1.5734   2.1672   3.4994   3.5086
     4.0910   4.3734   6.8395   7.2470   8.7741   9.2332   9.5185  10.0072
    10.1689

          k = 0.4235 0.0000 0.0000 (  7439 PWs)   bands (ev):

   -14.0635 -14.0588  -7.5544  -7.5441  -2.1593  -2.1509  -0.4665  -0.4518
     0.0051   0.0124   0.3741   0.7176   1.4810   2.1022   3.5438   3.5529
     4.0897   4.4065   6.9939   7.3967   8.7624   9.2373   9.6112  10.1210
    10.2041

          k = 0.4043 0.0000 0.0000 (  7435 PWs)   bands (ev):

   -14.0869 -14.0822  -7.6497  -7.6394  -2.0747  -2.0680  -0.3233  -0.2973
     0.0252   0.0326   0.3435   0.6616   1.3941   2.0385   3.5934   3.6025
     4.0743   4.4287   7.1663   7.5626   8.7276   9.2342   9.7197  10.2249
    10.2618

          k = 0.3850 0.0000 0.0000 (  7439 PWs)   bands (ev):

   -14.1119 -14.1072  -7.7481  -7.7377  -1.9839  -1.9778  -0.2497  -0.1471
     0.0471   0.0544   0.3829   0.6267   1.3170   1.9771   3.6480   3.6571
     4.0460   4.4401   7.3518   7.7359   8.6777   9.2225   9.8415  10.3158
    10.3419

          k = 0.3658 0.0000 0.0000 (  7443 PWs)   bands (ev):

   -14.1383 -14.1336  -7.8480  -7.8376  -1.8880  -1.8812  -0.2514  -0.0405
     0.0705   0.0779   0.5094   0.6334   1.2577   1.9192   3.7072   3.7164
     4.0064   4.4416   7.5435   7.8967   8.6336   9.2034   9.9741  10.4024
    10.4404

          k = 0.3465 0.0000 0.0000 (  7459 PWs)   bands (ev):

   -14.1657 -14.1610  -7.9481  -7.9377  -1.7880  -1.7801  -0.3007  -0.0000
     0.0952   0.1026   0.6852   0.6950   1.2349   1.8673   3.7708   3.7799
     3.9573   4.4343   7.7320   8.0013   8.6411   9.1822  10.1151  10.4834
    10.5582

          k = 0.3273 0.0000 0.0000 (  7453 PWs)   bands (ev):

   -14.1938 -14.1891  -8.0474  -8.0369  -1.6854  -1.6769  -0.3682  -0.0146
     0.1210   0.1285   0.7384   0.9041   1.2846   1.8263   3.8382   3.8473
     3.9004   4.4194   7.9029   8.0028   8.7489   9.1700  10.2631  10.5493
    10.6924

          k = 0.3080 0.0000 0.0000 (  7463 PWs)   bands (ev):

   -14.2223 -14.2175  -8.1448  -8.1342  -1.5823  -1.5747  -0.4374  -0.0566
     0.1476   0.1551   0.7435   1.1127   1.4277   1.8081   3.8375   3.9091
     3.9181   4.3982   7.9203   8.0364   8.9392   9.1847  10.4170  10.5902
    10.8387

          k = 0.2888 0.0000 0.0000 (  7467 PWs)   bands (ev):

   -14.2509 -14.2461  -8.2394  -8.2288  -1.4824  -1.4777  -0.4977  -0.1063
     0.1748   0.1823   0.7100   1.2830   1.6370   1.8426   3.7700   3.9828
     3.9918   4.3715   7.7960   8.1119   9.1702   9.2453  10.5756  10.6118
    10.9936

          k = 0.2695 0.0000 0.0000 (  7473 PWs)   bands (ev):

   -14.2792 -14.2744  -8.3305  -8.3198  -1.3974  -1.3846  -0.5394  -0.1518
     0.2022   0.2097   0.6595   1.3711   1.8814   1.9694   3.6996   4.0587
     4.0677   4.3402   7.6524   8.1220   9.3563   9.4206  10.6280  10.7384
    11.1539

          k = 0.2503 0.0000 0.0000 (  7467 PWs)   bands (ev):

   -14.3069 -14.3021  -8.4174  -8.4067  -1.3369  -1.2998  -0.5525  -0.1849
     0.2296   0.2371   0.6031   1.3857   2.1439   2.1763   3.6279   4.1361
     4.1451   4.3052   7.4999   8.0782   9.5034   9.6788  10.6526  10.9015
    11.3172

          k = 0.2310 0.0000 0.0000 (  7463 PWs)   bands (ev):

   -14.3338 -14.3290  -8.4997  -8.4889  -1.3062  -1.2302  -0.5293  -0.1987
     0.2566   0.2642   0.5456   1.3663   2.4134   2.4223   3.5576   4.2143
     4.2233   4.2670   7.3443   7.9992   9.6611   9.9394  10.6955  11.0619
    11.4816

          k = 0.2118 0.0000 0.0000 (  7479 PWs)   bands (ev):

   -14.3596 -14.3548  -8.5768  -8.5659  -1.3050  -1.1804  -0.4703  -0.1885
     0.2829   0.2905   0.4896   1.3344   2.6683   2.6951   3.4937   4.2264
     4.2923   4.3013   7.1894   7.8999   9.8063  10.1979  10.7670  11.2145
    11.6453

          k = 0.1925 0.0000 0.0000 (  7481 PWs)   bands (ev):

   -14.3840 -14.3792  -8.6483  -8.6374  -1.3258  -1.1521  -0.3837  -0.1531
     0.3083   0.3159   0.4363   1.2984   2.9023   2.9716   3.4516   4.1841
     4.3693   4.3783   7.0381   7.7905   9.9219  10.4504  10.8745  11.3541
    11.8045

          k = 0.1733 0.0000 0.0000 (  7485 PWs)   bands (ev):

   -14.4069 -14.4020  -8.7139  -8.7030  -1.3592  -1.1431  -0.2799  -0.0953
     0.3324   0.3400   0.3867   1.2619   3.0627   3.2441   3.4816   4.1413
     4.4441   4.4531   6.8928   7.6780  10.0019  10.6932  11.0166  11.4758
    11.9505

          k = 0.1540 0.0000 0.0000 (  7473 PWs)   bands (ev):

   -14.4279 -14.4230  -8.7733  -8.7623  -1.3981  -1.1486  -0.1672  -0.0214
     0.3412   0.3549   0.3626   1.2267   3.0928   3.5066   3.6369   4.1007
     4.5157   4.5246   6.7558   7.5671  10.0509  10.9212  11.1817  11.5764
    12.0649

          k = 0.1348 0.0000 0.0000 (  7469 PWs)   bands (ev):

   -14.4469 -14.4420  -8.8262  -8.8152  -1.4377  -1.1631  -0.0521   0.0616
     0.3004   0.3755   0.3832   1.1939   3.0528   3.7468   3.8536   4.0715
     4.5828   4.5917   6.6288   7.4616  10.0772  11.1276  11.3526  11.6530
    12.1205

          k = 0.1155 0.0000 0.0000 (  7463 PWs)   bands (ev):

   -14.4637 -14.4589  -8.8725  -8.8614  -1.4752  -1.1822   0.0606   0.1470
     0.2648   0.3940   0.4017   1.1640   2.9939   3.9040   4.0765   4.1116
     4.6443   4.6532   6.5137   7.3645  10.0882  11.3002  11.5053  11.6999
    12.0874

          k = 0.0963 0.0000 0.0000 (  7475 PWs)   bands (ev):

   -14.4782 -14.4733  -8.9119  -8.9008  -1.5089  -1.2023   0.1665   0.2223
     0.2414   0.4101   0.4178   1.1374   2.9322   3.9144   4.2774   4.2897
     4.6989   4.7078   6.4120   7.2780  10.0889  11.4147  11.5963  11.7129
    12.0525

          k = 0.0770 0.0000 0.0000 (  7453 PWs)   bands (ev):

   -14.4902 -14.4854  -8.9444  -8.9332  -1.5375  -1.2211   0.2066   0.2617
     0.3064   0.4236   0.4314   1.1145   2.8742   3.8873   4.4618   4.4768
     4.7455   4.7544   6.3250   7.2044  10.0831  11.4335  11.5829  11.7226
    12.0929

          k = 0.0578 0.0000 0.0000 (  7443 PWs)   bands (ev):

   -14.4997 -14.4948  -8.9697  -8.9586  -1.5604  -1.2371   0.1871   0.3418
     0.3691   0.4343   0.4421   1.0957   2.8241   3.8584   4.6203   4.6333
     4.7830   4.7919   6.2542   7.1451  10.0736  11.3730  11.5089  11.7506
    12.1824

          k = 0.0385 0.0000 0.0000 (  7427 PWs)   bands (ev):

   -14.5065 -14.5016  -8.9879  -8.9767  -1.5770  -1.2492   0.1729   0.4026
     0.4172   0.4420   0.4498   1.0815   2.7854   3.8349   4.7414   4.7519
     4.8105   4.8194   6.2013   7.1017  10.0636  11.2977  11.4333  11.7760
    12.2665

          k = 0.0193 0.0000 0.0000 (  7419 PWs)   bands (ev):

   -14.5106 -14.5058  -8.9988  -8.9876  -1.5871  -1.2567   0.1643   0.4399
     0.4467   0.4483   0.4545   1.0725   2.7608   3.8198   4.8172   4.8264
     4.8273   4.8362   6.1683   7.0751  10.0559  11.2431  11.3818  11.7910
    12.3282

          k = 0.0000 0.0000 0.0000 (  7397 PWs)   bands (ev):

   -14.5120 -14.5071  -9.0024  -8.9913  -1.5904  -1.2592   0.1614   0.4483
     0.4519   0.4561   0.4597   1.0694   2.7524   3.8145   4.8329   4.8419
     4.8430   4.8519   6.1571   7.0662  10.0531  11.2236  11.3638  11.7959
    12.3211

     Writing all to output data dir ./work/Al2SO.save/
 
     init_run     :      4.63s CPU      4.67s WALL (       1 calls)
     electrons    :     79.64s CPU    102.95s WALL (       1 calls)

     Called by init_run:
     wfcinit      :      0.00s CPU      0.00s WALL (       1 calls)
     potinit      :      4.45s CPU      4.48s WALL (       1 calls)
     hinit0       :      0.13s CPU      0.13s WALL (       1 calls)

     Called by electrons:
     c_bands      :     79.64s CPU    102.95s WALL (       1 calls)
     v_of_rho     :      4.36s CPU      4.38s WALL (       1 calls)
     newd         :      0.04s CPU      0.04s WALL (       1 calls)
     PAW_pot      :      0.09s CPU      0.10s WALL (       1 calls)
     vdW_kernel   :      4.33s CPU      4.34s WALL (       1 calls)

     Called by c_bands:
     init_us_2    :      0.03s CPU      0.04s WALL (      91 calls)
     init_us_2:cp :      0.03s CPU      0.04s WALL (      91 calls)
     cegterg      :     77.72s CPU    100.47s WALL (     546 calls)

     Called by *egterg:
     cdiaghg      :      5.59s CPU      6.27s WALL (   10877 calls)
     h_psi        :     56.51s CPU     77.25s WALL (   11423 calls)
     s_psi        :      4.24s CPU      4.77s WALL (   11423 calls)
     g_psi        :      0.16s CPU      0.17s WALL (   10786 calls)

     Called by h_psi:
     h_psi:calbec :      6.49s CPU      8.65s WALL (   11423 calls)
     vloc_psi     :     42.74s CPU     59.93s WALL (   11423 calls)
     add_vuspsi   :      6.99s CPU      8.36s WALL (   11423 calls)

     General routines
     calbec       :      6.47s CPU      8.62s WALL (   11423 calls)
     fft          :      0.01s CPU      0.02s WALL (      62 calls)
     fftw         :     40.93s CPU     57.51s WALL (  238660 calls)
     davcio       :      0.02s CPU      0.02s WALL (     182 calls)
 
     Parallel routines
 
     PWSCF        :   1m24.85s CPU   1m48.62s WALL

 
   This run was terminated on:  13:59:27  11Jun2023            

=------------------------------------------------------------------------------=
   JOB DONE.
=------------------------------------------------------------------------------=
