
     Program PWSCF v.7.0 starts on 22Jun2023 at 12:59: 7 

     This program is part of the open-source Quantum ESPRESSO suite
     for quantum simulation of materials; please cite
         "P. Giannozzi et al., J. Phys.:Condens. Matter 21 395502 (2009);
         "P. Giannozzi et al., J. Phys.:Condens. Matter 29 465901 (2017);
         "P. Giannozzi et al., J. Chem. Phys. 152 154105 (2020);
          URL http://www.quantum-espresso.org", 
     in publications or presentations arising from this work. More details at
     http://www.quantum-espresso.org/quote

     Parallel version (MPI), running on    10 processors

     MPI processes distributed on     1 nodes
     R & G space division:  proc/nbgrp/npool/nimage =      10
     19937 MiB available memory on the printing compute node when the environment starts
 
     Waiting for input...
     Reading input from standard input

     Current dimensions of program PWSCF are:
     Max number of different atomic species (ntypx) = 10
     Max number of k-points (npk) =  40000
     Max angular momentum in pseudopotentials (lmaxx) =  4
     Message from routine volume:
     axis vectors are left-handed

     Atomic positions and unit cell read from directory:
     ./work/Al2S2.save/
     Atomic positions from file used, from input discarded
 
     Message from routine volume:
     axis vectors are left-handed
     file Al.pbe-n-kjpaw_psl.1.0.0.UPF: wavefunction(s)  3S 3P renormalized
     file S.pbe-n-kjpaw_psl.1.0.0.UPF: wavefunction(s)  3S 3P renormalized

     IMPORTANT: XC functional enforced from input :
     Exchange-correlation= VDW-DF2-B86R
                           (   1   4  26   0   2   0   0)
     Any further DFT definition will be discarded
     Please, verify this is what you really want


     Subspace diagonalization in iterative solution of the eigenvalue problem:
     a serial algorithm will be used

 
     Parallelization info
     --------------------
     sticks:   dense  smooth     PW     G-vecs:    dense   smooth      PW
     Min          74      74     24                11662    11662    2046
     Max          75      75     25                11703    11703    2057
     Sum         745     745    241               116821   116821   20503
 
     Using Slab Decomposition
 


     bravais-lattice index     =            0
     lattice parameter (alat)  =       6.7418  a.u.
     unit-cell volume          =    1861.7354 (a.u.)^3
     number of atoms/cell      =            4
     number of atomic types    =            2
     number of electrons       =        18.00
     number of Kohn-Sham states=           30
     kinetic-energy cutoff     =      60.0000  Ry
     charge density cutoff     =     240.0000  Ry
     Exchange-correlation= VDW-DF2-B86R
                           (   1   4  26   0   2   0   0)

     celldm(1)=   6.741753  celldm(2)=   0.000000  celldm(3)=   0.000000
     celldm(4)=   0.000000  celldm(5)=   0.000000  celldm(6)=   0.000000

     crystal axes: (cart. coord. in units of alat)
               a(1) = (   0.865522   0.500870   0.000000 )  
               a(2) = (   0.865522  -0.500870   0.000000 )  
               a(3) = (   0.000000   0.000000   7.007548 )  

     reciprocal axes: (cart. coord. in units 2 pi/alat)
               b(1) = (  0.577686  0.998263  0.000000 )  
               b(2) = (  0.577686 -0.998263  0.000000 )  
               b(3) = (  0.000000  0.000000  0.142703 )  


     PseudoPot. # 1 for Al read from file:
     /home/mainadmin/research/danu/pseudo/Al.pbe-n-kjpaw_psl.1.0.0.UPF
     MD5 check sum: 502b6b27b9c6270cab5dd1084b96fa6d
     Pseudo is Projector augmented-wave + core cor, Zval =  3.0
     Generated using &quot;atomic&quot; code by A. Dal Corso  v.6.3
     Shape of augmentation charge: PSQ
     Using radial grid of 1135 points,  6 beta functions with: 
                l(1) =   0
                l(2) =   0
                l(3) =   1
                l(4) =   1
                l(5) =   2
                l(6) =   2
     Q(r) pseudized with 0 coefficients 


     PseudoPot. # 2 for S  read from file:
     /home/mainadmin/research/danu/pseudo/S.pbe-n-kjpaw_psl.1.0.0.UPF
     MD5 check sum: fb45dfebcf3e72a4e1bd4a866ec2e262
     Pseudo is Projector augmented-wave + core cor, Zval =  6.0
     Generated using &quot;atomic&quot; code by A. Dal Corso  v.6.3
     Shape of augmentation charge: PSQ
     Using radial grid of 1151 points,  6 beta functions with: 
                l(1) =   0
                l(2) =   0
                l(3) =   1
                l(4) =   1
                l(5) =   2
                l(6) =   2
     Q(r) pseudized with 0 coefficients 


     atomic species   valence    mass     pseudopotential
        Al             3.00    26.98100     Al( 1.00)
        S              6.00    32.06500     S ( 1.00)

     No symmetry found


                                    s                        frac. trans.

      isym =  1     identity                                     

 cryst.   s( 1) = (     1          0          0      )
                  (     0          1          0      )
                  (     0          0          1      )

 cart.    s( 1) = (  1.0000000  0.0000000  0.0000000 )
                  (  0.0000000  1.0000000  0.0000000 )
                  (  0.0000000  0.0000000  1.0000000 )


   Cartesian axes

     site n.     atom                  positions (alat units)
         1           S   tau(   1) = (   1.1541355   0.0000000   2.8496482  )
         2           Al  tau(   2) = (   0.5769797   0.0000000   3.1499436  )
         3           Al  tau(   3) = (   0.5767851   0.0000000   3.8759445  )
         4           S   tau(   4) = (   1.1541896   0.0000000   4.1762155  )

   Crystallographic axes

     site n.     atom                  positions (cryst. coord.)
         1           S   tau(   1) = (  0.6667276  0.6667276  0.4066541  )
         2           Al  tau(   2) = (  0.3333130  0.3333130  0.4495073  )
         3           Al  tau(   3) = (  0.3332005  0.3332005  0.5531100  )
         4           S   tau(   4) = (  0.6667589  0.6667589  0.5959596  )

     number of k points=  1354 (tetrahedron method)
                       cart. coord. in units 2pi/alat
        k(    1) = (   0.0000000   0.0000000   0.0000000), wk =   0.0007396
        k(    2) = (   0.0111093  -0.0191974   0.0000000), wk =   0.0014793
        k(    3) = (   0.0222187  -0.0383947   0.0000000), wk =   0.0014793
        k(    4) = (   0.0333280  -0.0575921   0.0000000), wk =   0.0014793
        k(    5) = (   0.0444374  -0.0767894   0.0000000), wk =   0.0014793
        k(    6) = (   0.0555467  -0.0959868   0.0000000), wk =   0.0014793
        k(    7) = (   0.0666560  -0.1151842   0.0000000), wk =   0.0014793
        k(    8) = (   0.0777654  -0.1343815   0.0000000), wk =   0.0014793
        k(    9) = (   0.0888747  -0.1535789   0.0000000), wk =   0.0014793
        k(   10) = (   0.0999841  -0.1727763   0.0000000), wk =   0.0014793
        k(   11) = (   0.1110934  -0.1919736   0.0000000), wk =   0.0014793
        k(   12) = (   0.1222028  -0.2111710   0.0000000), wk =   0.0014793
        k(   13) = (   0.1333121  -0.2303683   0.0000000), wk =   0.0014793
        k(   14) = (   0.1444214  -0.2495657   0.0000000), wk =   0.0014793
        k(   15) = (   0.1555308  -0.2687631   0.0000000), wk =   0.0014793
        k(   16) = (   0.1666401  -0.2879604   0.0000000), wk =   0.0014793
        k(   17) = (   0.1777495  -0.3071578   0.0000000), wk =   0.0014793
        k(   18) = (   0.1888588  -0.3263551   0.0000000), wk =   0.0014793
        k(   19) = (   0.1999681  -0.3455525   0.0000000), wk =   0.0014793
        k(   20) = (   0.2110775  -0.3647499   0.0000000), wk =   0.0014793
        k(   21) = (   0.2221868  -0.3839472   0.0000000), wk =   0.0014793
        k(   22) = (   0.2332962  -0.4031446   0.0000000), wk =   0.0014793
        k(   23) = (   0.2444055  -0.4223420   0.0000000), wk =   0.0014793
        k(   24) = (   0.2555149  -0.4415393   0.0000000), wk =   0.0014793
        k(   25) = (   0.2666242  -0.4607367   0.0000000), wk =   0.0014793
        k(   26) = (   0.2777335  -0.4799340   0.0000000), wk =   0.0014793
        k(   27) = (  -0.2888429   0.4991314   0.0000000), wk =   0.0007396
        k(   28) = (   0.0111093   0.0191974   0.0000000), wk =   0.0014793
        k(   29) = (   0.0222187   0.0000000   0.0000000), wk =   0.0014793
        k(   30) = (   0.0333280  -0.0191974   0.0000000), wk =   0.0014793
        k(   31) = (   0.0444374  -0.0383947   0.0000000), wk =   0.0014793
        k(   32) = (   0.0555467  -0.0575921   0.0000000), wk =   0.0014793
        k(   33) = (   0.0666560  -0.0767894   0.0000000), wk =   0.0014793
        k(   34) = (   0.0777654  -0.0959868   0.0000000), wk =   0.0014793
        k(   35) = (   0.0888747  -0.1151842   0.0000000), wk =   0.0014793
        k(   36) = (   0.0999841  -0.1343815   0.0000000), wk =   0.0014793
        k(   37) = (   0.1110934  -0.1535789   0.0000000), wk =   0.0014793
        k(   38) = (   0.1222028  -0.1727763   0.0000000), wk =   0.0014793
        k(   39) = (   0.1333121  -0.1919736   0.0000000), wk =   0.0014793
        k(   40) = (   0.1444214  -0.2111710   0.0000000), wk =   0.0014793
        k(   41) = (   0.1555308  -0.2303683   0.0000000), wk =   0.0014793
        k(   42) = (   0.1666401  -0.2495657   0.0000000), wk =   0.0014793
        k(   43) = (   0.1777495  -0.2687631   0.0000000), wk =   0.0014793
        k(   44) = (   0.1888588  -0.2879604   0.0000000), wk =   0.0014793
        k(   45) = (   0.1999681  -0.3071578   0.0000000), wk =   0.0014793
        k(   46) = (   0.2110775  -0.3263551   0.0000000), wk =   0.0014793
        k(   47) = (   0.2221868  -0.3455525   0.0000000), wk =   0.0014793
        k(   48) = (   0.2332962  -0.3647499   0.0000000), wk =   0.0014793
        k(   49) = (   0.2444055  -0.3839472   0.0000000), wk =   0.0014793
        k(   50) = (   0.2555149  -0.4031446   0.0000000), wk =   0.0014793
        k(   51) = (   0.2666242  -0.4223420   0.0000000), wk =   0.0014793
        k(   52) = (   0.2777335  -0.4415393   0.0000000), wk =   0.0014793
        k(   53) = (   0.2888429  -0.4607367   0.0000000), wk =   0.0014793
        k(   54) = (  -0.2777335   0.5183288   0.0000000), wk =   0.0014793
        k(   55) = (  -0.2666242   0.4991314   0.0000000), wk =   0.0014793
        k(   56) = (  -0.2555149   0.4799340   0.0000000), wk =   0.0014793
        k(   57) = (  -0.2444055   0.4607367   0.0000000), wk =   0.0014793
        k(   58) = (  -0.2332962   0.4415393   0.0000000), wk =   0.0014793
        k(   59) = (  -0.2221868   0.4223420   0.0000000), wk =   0.0014793
        k(   60) = (  -0.2110775   0.4031446   0.0000000), wk =   0.0014793
        k(   61) = (  -0.1999681   0.3839472   0.0000000), wk =   0.0014793
        k(   62) = (  -0.1888588   0.3647499   0.0000000), wk =   0.0014793
        k(   63) = (  -0.1777495   0.3455525   0.0000000), wk =   0.0014793
        k(   64) = (  -0.1666401   0.3263551   0.0000000), wk =   0.0014793
        k(   65) = (  -0.1555308   0.3071578   0.0000000), wk =   0.0014793
        k(   66) = (  -0.1444214   0.2879604   0.0000000), wk =   0.0014793
        k(   67) = (  -0.1333121   0.2687631   0.0000000), wk =   0.0014793
        k(   68) = (  -0.1222028   0.2495657   0.0000000), wk =   0.0014793
        k(   69) = (  -0.1110934   0.2303683   0.0000000), wk =   0.0014793
        k(   70) = (  -0.0999841   0.2111710   0.0000000), wk =   0.0014793
        k(   71) = (  -0.0888747   0.1919736   0.0000000), wk =   0.0014793
        k(   72) = (  -0.0777654   0.1727763   0.0000000), wk =   0.0014793
        k(   73) = (  -0.0666560   0.1535789   0.0000000), wk =   0.0014793
        k(   74) = (  -0.0555467   0.1343815   0.0000000), wk =   0.0014793
        k(   75) = (  -0.0444374   0.1151842   0.0000000), wk =   0.0014793
        k(   76) = (  -0.0333280   0.0959868   0.0000000), wk =   0.0014793
        k(   77) = (  -0.0222187   0.0767894   0.0000000), wk =   0.0014793
        k(   78) = (  -0.0111093   0.0575921   0.0000000), wk =   0.0014793
        k(   79) = (  -0.0000000   0.0383947   0.0000000), wk =   0.0014793
        k(   80) = (   0.0222187   0.0383947   0.0000000), wk =   0.0014793
        k(   81) = (   0.0333280   0.0191974   0.0000000), wk =   0.0014793
        k(   82) = (   0.0444374   0.0000000   0.0000000), wk =   0.0014793
        k(   83) = (   0.0555467  -0.0191974   0.0000000), wk =   0.0014793
        k(   84) = (   0.0666560  -0.0383947   0.0000000), wk =   0.0014793
        k(   85) = (   0.0777654  -0.0575921   0.0000000), wk =   0.0014793
        k(   86) = (   0.0888747  -0.0767894   0.0000000), wk =   0.0014793
        k(   87) = (   0.0999841  -0.0959868   0.0000000), wk =   0.0014793
        k(   88) = (   0.1110934  -0.1151842   0.0000000), wk =   0.0014793
        k(   89) = (   0.1222028  -0.1343815   0.0000000), wk =   0.0014793
        k(   90) = (   0.1333121  -0.1535789   0.0000000), wk =   0.0014793
        k(   91) = (   0.1444214  -0.1727763   0.0000000), wk =   0.0014793
        k(   92) = (   0.1555308  -0.1919736   0.0000000), wk =   0.0014793
        k(   93) = (   0.1666401  -0.2111710   0.0000000), wk =   0.0014793
        k(   94) = (   0.1777495  -0.2303683   0.0000000), wk =   0.0014793
        k(   95) = (   0.1888588  -0.2495657   0.0000000), wk =   0.0014793
        k(   96) = (   0.1999681  -0.2687631   0.0000000), wk =   0.0014793
        k(   97) = (   0.2110775  -0.2879604   0.0000000), wk =   0.0014793
        k(   98) = (   0.2221868  -0.3071578   0.0000000), wk =   0.0014793
        k(   99) = (   0.2332962  -0.3263551   0.0000000), wk =   0.0014793
        k(  100) = (   0.2444055  -0.3455525   0.0000000), wk =   0.0014793
        k(  101) = (   0.2555149  -0.3647499   0.0000000), wk =   0.0014793
        k(  102) = (   0.2666242  -0.3839472   0.0000000), wk =   0.0014793
        k(  103) = (   0.2777335  -0.4031446   0.0000000), wk =   0.0014793
        k(  104) = (   0.2888429  -0.4223420   0.0000000), wk =   0.0014793
        k(  105) = (   0.2999522  -0.4415393   0.0000000), wk =   0.0014793
        k(  106) = (  -0.2666242   0.5375261   0.0000000), wk =   0.0014793
        k(  107) = (  -0.2555149   0.5183288   0.0000000), wk =   0.0014793
        k(  108) = (  -0.2444055   0.4991314   0.0000000), wk =   0.0014793
        k(  109) = (  -0.2332962   0.4799340   0.0000000), wk =   0.0014793
        k(  110) = (  -0.2221868   0.4607367   0.0000000), wk =   0.0014793
        k(  111) = (  -0.2110775   0.4415393   0.0000000), wk =   0.0014793
        k(  112) = (  -0.1999681   0.4223420   0.0000000), wk =   0.0014793
        k(  113) = (  -0.1888588   0.4031446   0.0000000), wk =   0.0014793
        k(  114) = (  -0.1777495   0.3839472   0.0000000), wk =   0.0014793
        k(  115) = (  -0.1666401   0.3647499   0.0000000), wk =   0.0014793
        k(  116) = (  -0.1555308   0.3455525   0.0000000), wk =   0.0014793
        k(  117) = (  -0.1444214   0.3263551   0.0000000), wk =   0.0014793
        k(  118) = (  -0.1333121   0.3071578   0.0000000), wk =   0.0014793
        k(  119) = (  -0.1222028   0.2879604   0.0000000), wk =   0.0014793
        k(  120) = (  -0.1110934   0.2687631   0.0000000), wk =   0.0014793
        k(  121) = (  -0.0999841   0.2495657   0.0000000), wk =   0.0014793
        k(  122) = (  -0.0888747   0.2303683   0.0000000), wk =   0.0014793
        k(  123) = (  -0.0777654   0.2111710   0.0000000), wk =   0.0014793
        k(  124) = (  -0.0666560   0.1919736   0.0000000), wk =   0.0014793
        k(  125) = (  -0.0555467   0.1727763   0.0000000), wk =   0.0014793
        k(  126) = (  -0.0444374   0.1535789   0.0000000), wk =   0.0014793
        k(  127) = (  -0.0333280   0.1343815   0.0000000), wk =   0.0014793
        k(  128) = (  -0.0222187   0.1151842   0.0000000), wk =   0.0014793
        k(  129) = (  -0.0111093   0.0959868   0.0000000), wk =   0.0014793
        k(  130) = (   0.0000000   0.0767894   0.0000000), wk =   0.0014793
        k(  131) = (   0.0111093   0.0575921   0.0000000), wk =   0.0014793
        k(  132) = (   0.0333280   0.0575921   0.0000000), wk =   0.0014793
        k(  133) = (   0.0444374   0.0383947   0.0000000), wk =   0.0014793
        k(  134) = (   0.0555467   0.0191974   0.0000000), wk =   0.0014793
        k(  135) = (   0.0666560   0.0000000   0.0000000), wk =   0.0014793
        k(  136) = (   0.0777654  -0.0191974   0.0000000), wk =   0.0014793
        k(  137) = (   0.0888747  -0.0383947   0.0000000), wk =   0.0014793
        k(  138) = (   0.0999841  -0.0575921   0.0000000), wk =   0.0014793
        k(  139) = (   0.1110934  -0.0767894   0.0000000), wk =   0.0014793
        k(  140) = (   0.1222028  -0.0959868   0.0000000), wk =   0.0014793
        k(  141) = (   0.1333121  -0.1151842   0.0000000), wk =   0.0014793
        k(  142) = (   0.1444214  -0.1343815   0.0000000), wk =   0.0014793
        k(  143) = (   0.1555308  -0.1535789   0.0000000), wk =   0.0014793
        k(  144) = (   0.1666401  -0.1727763   0.0000000), wk =   0.0014793
        k(  145) = (   0.1777495  -0.1919736   0.0000000), wk =   0.0014793
        k(  146) = (   0.1888588  -0.2111710   0.0000000), wk =   0.0014793
        k(  147) = (   0.1999681  -0.2303683   0.0000000), wk =   0.0014793
        k(  148) = (   0.2110775  -0.2495657   0.0000000), wk =   0.0014793
        k(  149) = (   0.2221868  -0.2687631   0.0000000), wk =   0.0014793
        k(  150) = (   0.2332962  -0.2879604   0.0000000), wk =   0.0014793
        k(  151) = (   0.2444055  -0.3071578   0.0000000), wk =   0.0014793
        k(  152) = (   0.2555149  -0.3263551   0.0000000), wk =   0.0014793
        k(  153) = (   0.2666242  -0.3455525   0.0000000), wk =   0.0014793
        k(  154) = (   0.2777335  -0.3647499   0.0000000), wk =   0.0014793
        k(  155) = (   0.2888429  -0.3839472   0.0000000), wk =   0.0014793
        k(  156) = (   0.2999522  -0.4031446   0.0000000), wk =   0.0014793
        k(  157) = (   0.3110616  -0.4223420   0.0000000), wk =   0.0014793
        k(  158) = (  -0.2555149   0.5567235   0.0000000), wk =   0.0014793
        k(  159) = (  -0.2444055   0.5375261   0.0000000), wk =   0.0014793
        k(  160) = (  -0.2332962   0.5183288   0.0000000), wk =   0.0014793
        k(  161) = (  -0.2221868   0.4991314   0.0000000), wk =   0.0014793
        k(  162) = (  -0.2110775   0.4799340   0.0000000), wk =   0.0014793
        k(  163) = (  -0.1999681   0.4607367   0.0000000), wk =   0.0014793
        k(  164) = (  -0.1888588   0.4415393   0.0000000), wk =   0.0014793
        k(  165) = (  -0.1777495   0.4223420   0.0000000), wk =   0.0014793
        k(  166) = (  -0.1666401   0.4031446   0.0000000), wk =   0.0014793
        k(  167) = (  -0.1555308   0.3839472   0.0000000), wk =   0.0014793
        k(  168) = (  -0.1444214   0.3647499   0.0000000), wk =   0.0014793
        k(  169) = (  -0.1333121   0.3455525   0.0000000), wk =   0.0014793
        k(  170) = (  -0.1222028   0.3263551   0.0000000), wk =   0.0014793
        k(  171) = (  -0.1110934   0.3071578   0.0000000), wk =   0.0014793
        k(  172) = (  -0.0999841   0.2879604   0.0000000), wk =   0.0014793
        k(  173) = (  -0.0888747   0.2687631   0.0000000), wk =   0.0014793
        k(  174) = (  -0.0777654   0.2495657   0.0000000), wk =   0.0014793
        k(  175) = (  -0.0666560   0.2303683   0.0000000), wk =   0.0014793
        k(  176) = (  -0.0555467   0.2111710   0.0000000), wk =   0.0014793
        k(  177) = (  -0.0444374   0.1919736   0.0000000), wk =   0.0014793
        k(  178) = (  -0.0333280   0.1727763   0.0000000), wk =   0.0014793
        k(  179) = (  -0.0222187   0.1535789   0.0000000), wk =   0.0014793
        k(  180) = (  -0.0111093   0.1343815   0.0000000), wk =   0.0014793
        k(  181) = (  -0.0000000   0.1151842   0.0000000), wk =   0.0014793
        k(  182) = (   0.0111093   0.0959868   0.0000000), wk =   0.0014793
        k(  183) = (   0.0222187   0.0767894   0.0000000), wk =   0.0014793
        k(  184) = (   0.0444374   0.0767894   0.0000000), wk =   0.0014793
        k(  185) = (   0.0555467   0.0575921   0.0000000), wk =   0.0014793
        k(  186) = (   0.0666560   0.0383947   0.0000000), wk =   0.0014793
        k(  187) = (   0.0777654   0.0191974   0.0000000), wk =   0.0014793
        k(  188) = (   0.0888747   0.0000000   0.0000000), wk =   0.0014793
        k(  189) = (   0.0999841  -0.0191974   0.0000000), wk =   0.0014793
        k(  190) = (   0.1110934  -0.0383947   0.0000000), wk =   0.0014793
        k(  191) = (   0.1222028  -0.0575921   0.0000000), wk =   0.0014793
        k(  192) = (   0.1333121  -0.0767894   0.0000000), wk =   0.0014793
        k(  193) = (   0.1444214  -0.0959868   0.0000000), wk =   0.0014793
        k(  194) = (   0.1555308  -0.1151842   0.0000000), wk =   0.0014793
        k(  195) = (   0.1666401  -0.1343815   0.0000000), wk =   0.0014793
        k(  196) = (   0.1777495  -0.1535789   0.0000000), wk =   0.0014793
        k(  197) = (   0.1888588  -0.1727763   0.0000000), wk =   0.0014793
        k(  198) = (   0.1999681  -0.1919736   0.0000000), wk =   0.0014793
        k(  199) = (   0.2110775  -0.2111710   0.0000000), wk =   0.0014793
        k(  200) = (   0.2221868  -0.2303683   0.0000000), wk =   0.0014793
        k(  201) = (   0.2332962  -0.2495657   0.0000000), wk =   0.0014793
        k(  202) = (   0.2444055  -0.2687631   0.0000000), wk =   0.0014793
        k(  203) = (   0.2555149  -0.2879604   0.0000000), wk =   0.0014793
        k(  204) = (   0.2666242  -0.3071578   0.0000000), wk =   0.0014793
        k(  205) = (   0.2777335  -0.3263551   0.0000000), wk =   0.0014793
        k(  206) = (   0.2888429  -0.3455525   0.0000000), wk =   0.0014793
        k(  207) = (   0.2999522  -0.3647499   0.0000000), wk =   0.0014793
        k(  208) = (   0.3110616  -0.3839472   0.0000000), wk =   0.0014793
        k(  209) = (   0.3221709  -0.4031446   0.0000000), wk =   0.0014793
        k(  210) = (  -0.2444055   0.5759208   0.0000000), wk =   0.0014793
        k(  211) = (  -0.2332962   0.5567235   0.0000000), wk =   0.0014793
        k(  212) = (  -0.2221868   0.5375261   0.0000000), wk =   0.0014793
        k(  213) = (  -0.2110775   0.5183288   0.0000000), wk =   0.0014793
        k(  214) = (  -0.1999681   0.4991314   0.0000000), wk =   0.0014793
        k(  215) = (  -0.1888588   0.4799340   0.0000000), wk =   0.0014793
        k(  216) = (  -0.1777495   0.4607367   0.0000000), wk =   0.0014793
        k(  217) = (  -0.1666401   0.4415393   0.0000000), wk =   0.0014793
        k(  218) = (  -0.1555308   0.4223420   0.0000000), wk =   0.0014793
        k(  219) = (  -0.1444214   0.4031446   0.0000000), wk =   0.0014793
        k(  220) = (  -0.1333121   0.3839472   0.0000000), wk =   0.0014793
        k(  221) = (  -0.1222028   0.3647499   0.0000000), wk =   0.0014793
        k(  222) = (  -0.1110934   0.3455525   0.0000000), wk =   0.0014793
        k(  223) = (  -0.0999841   0.3263551   0.0000000), wk =   0.0014793
        k(  224) = (  -0.0888747   0.3071578   0.0000000), wk =   0.0014793
        k(  225) = (  -0.0777654   0.2879604   0.0000000), wk =   0.0014793
        k(  226) = (  -0.0666560   0.2687631   0.0000000), wk =   0.0014793
        k(  227) = (  -0.0555467   0.2495657   0.0000000), wk =   0.0014793
        k(  228) = (  -0.0444374   0.2303683   0.0000000), wk =   0.0014793
        k(  229) = (  -0.0333280   0.2111710   0.0000000), wk =   0.0014793
        k(  230) = (  -0.0222187   0.1919736   0.0000000), wk =   0.0014793
        k(  231) = (  -0.0111093   0.1727763   0.0000000), wk =   0.0014793
        k(  232) = (   0.0000000   0.1535789   0.0000000), wk =   0.0014793
        k(  233) = (   0.0111093   0.1343815   0.0000000), wk =   0.0014793
        k(  234) = (   0.0222187   0.1151842   0.0000000), wk =   0.0014793
        k(  235) = (   0.0333280   0.0959868   0.0000000), wk =   0.0014793
        k(  236) = (   0.0555467   0.0959868   0.0000000), wk =   0.0014793
        k(  237) = (   0.0666560   0.0767894   0.0000000), wk =   0.0014793
        k(  238) = (   0.0777654   0.0575921   0.0000000), wk =   0.0014793
        k(  239) = (   0.0888747   0.0383947   0.0000000), wk =   0.0014793
        k(  240) = (   0.0999841   0.0191974   0.0000000), wk =   0.0014793
        k(  241) = (   0.1110934   0.0000000   0.0000000), wk =   0.0014793
        k(  242) = (   0.1222028  -0.0191974   0.0000000), wk =   0.0014793
        k(  243) = (   0.1333121  -0.0383947   0.0000000), wk =   0.0014793
        k(  244) = (   0.1444214  -0.0575921   0.0000000), wk =   0.0014793
        k(  245) = (   0.1555308  -0.0767894   0.0000000), wk =   0.0014793
        k(  246) = (   0.1666401  -0.0959868   0.0000000), wk =   0.0014793
        k(  247) = (   0.1777495  -0.1151842   0.0000000), wk =   0.0014793
        k(  248) = (   0.1888588  -0.1343815   0.0000000), wk =   0.0014793
        k(  249) = (   0.1999681  -0.1535789   0.0000000), wk =   0.0014793
        k(  250) = (   0.2110775  -0.1727763   0.0000000), wk =   0.0014793
        k(  251) = (   0.2221868  -0.1919736   0.0000000), wk =   0.0014793
        k(  252) = (   0.2332962  -0.2111710   0.0000000), wk =   0.0014793
        k(  253) = (   0.2444055  -0.2303683   0.0000000), wk =   0.0014793
        k(  254) = (   0.2555149  -0.2495657   0.0000000), wk =   0.0014793
        k(  255) = (   0.2666242  -0.2687631   0.0000000), wk =   0.0014793
        k(  256) = (   0.2777335  -0.2879604   0.0000000), wk =   0.0014793
        k(  257) = (   0.2888429  -0.3071578   0.0000000), wk =   0.0014793
        k(  258) = (   0.2999522  -0.3263551   0.0000000), wk =   0.0014793
        k(  259) = (   0.3110616  -0.3455525   0.0000000), wk =   0.0014793
        k(  260) = (   0.3221709  -0.3647499   0.0000000), wk =   0.0014793
        k(  261) = (   0.3332802  -0.3839472   0.0000000), wk =   0.0014793
        k(  262) = (  -0.2332962   0.5951182   0.0000000), wk =   0.0014793
        k(  263) = (  -0.2221868   0.5759208   0.0000000), wk =   0.0014793
        k(  264) = (  -0.2110775   0.5567235   0.0000000), wk =   0.0014793
        k(  265) = (  -0.1999681   0.5375261   0.0000000), wk =   0.0014793
        k(  266) = (  -0.1888588   0.5183288   0.0000000), wk =   0.0014793
        k(  267) = (  -0.1777495   0.4991314   0.0000000), wk =   0.0014793
        k(  268) = (  -0.1666401   0.4799340   0.0000000), wk =   0.0014793
        k(  269) = (  -0.1555308   0.4607367   0.0000000), wk =   0.0014793
        k(  270) = (  -0.1444214   0.4415393   0.0000000), wk =   0.0014793
        k(  271) = (  -0.1333121   0.4223420   0.0000000), wk =   0.0014793
        k(  272) = (  -0.1222028   0.4031446   0.0000000), wk =   0.0014793
        k(  273) = (  -0.1110934   0.3839472   0.0000000), wk =   0.0014793
        k(  274) = (  -0.0999841   0.3647499   0.0000000), wk =   0.0014793
        k(  275) = (  -0.0888747   0.3455525   0.0000000), wk =   0.0014793
        k(  276) = (  -0.0777654   0.3263551   0.0000000), wk =   0.0014793
        k(  277) = (  -0.0666560   0.3071578   0.0000000), wk =   0.0014793
        k(  278) = (  -0.0555467   0.2879604   0.0000000), wk =   0.0014793
        k(  279) = (  -0.0444374   0.2687631   0.0000000), wk =   0.0014793
        k(  280) = (  -0.0333280   0.2495657   0.0000000), wk =   0.0014793
        k(  281) = (  -0.0222187   0.2303683   0.0000000), wk =   0.0014793
        k(  282) = (  -0.0111093   0.2111710   0.0000000), wk =   0.0014793
        k(  283) = (   0.0000000   0.1919736   0.0000000), wk =   0.0014793
        k(  284) = (   0.0111093   0.1727763   0.0000000), wk =   0.0014793
        k(  285) = (   0.0222187   0.1535789   0.0000000), wk =   0.0014793
        k(  286) = (   0.0333280   0.1343815   0.0000000), wk =   0.0014793
        k(  287) = (   0.0444374   0.1151842   0.0000000), wk =   0.0014793
        k(  288) = (   0.0666560   0.1151842   0.0000000), wk =   0.0014793
        k(  289) = (   0.0777654   0.0959868   0.0000000), wk =   0.0014793
        k(  290) = (   0.0888747   0.0767894   0.0000000), wk =   0.0014793
        k(  291) = (   0.0999841   0.0575921   0.0000000), wk =   0.0014793
        k(  292) = (   0.1110934   0.0383947   0.0000000), wk =   0.0014793
        k(  293) = (   0.1222028   0.0191974   0.0000000), wk =   0.0014793
        k(  294) = (   0.1333121   0.0000000   0.0000000), wk =   0.0014793
        k(  295) = (   0.1444214  -0.0191974   0.0000000), wk =   0.0014793
        k(  296) = (   0.1555308  -0.0383947   0.0000000), wk =   0.0014793
        k(  297) = (   0.1666401  -0.0575921   0.0000000), wk =   0.0014793
        k(  298) = (   0.1777495  -0.0767894   0.0000000), wk =   0.0014793
        k(  299) = (   0.1888588  -0.0959868   0.0000000), wk =   0.0014793
        k(  300) = (   0.1999681  -0.1151842   0.0000000), wk =   0.0014793
        k(  301) = (   0.2110775  -0.1343815   0.0000000), wk =   0.0014793
        k(  302) = (   0.2221868  -0.1535789   0.0000000), wk =   0.0014793
        k(  303) = (   0.2332962  -0.1727763   0.0000000), wk =   0.0014793
        k(  304) = (   0.2444055  -0.1919736   0.0000000), wk =   0.0014793
        k(  305) = (   0.2555149  -0.2111710   0.0000000), wk =   0.0014793
        k(  306) = (   0.2666242  -0.2303683   0.0000000), wk =   0.0014793
        k(  307) = (   0.2777335  -0.2495657   0.0000000), wk =   0.0014793
        k(  308) = (   0.2888429  -0.2687631   0.0000000), wk =   0.0014793
        k(  309) = (   0.2999522  -0.2879604   0.0000000), wk =   0.0014793
        k(  310) = (   0.3110616  -0.3071578   0.0000000), wk =   0.0014793
        k(  311) = (   0.3221709  -0.3263551   0.0000000), wk =   0.0014793
        k(  312) = (   0.3332802  -0.3455525   0.0000000), wk =   0.0014793
        k(  313) = (   0.3443896  -0.3647499   0.0000000), wk =   0.0014793
        k(  314) = (  -0.2221868   0.6143156   0.0000000), wk =   0.0014793
        k(  315) = (  -0.2110775   0.5951182   0.0000000), wk =   0.0014793
        k(  316) = (  -0.1999681   0.5759208   0.0000000), wk =   0.0014793
        k(  317) = (  -0.1888588   0.5567235   0.0000000), wk =   0.0014793
        k(  318) = (  -0.1777495   0.5375261   0.0000000), wk =   0.0014793
        k(  319) = (  -0.1666401   0.5183288   0.0000000), wk =   0.0014793
        k(  320) = (  -0.1555308   0.4991314   0.0000000), wk =   0.0014793
        k(  321) = (  -0.1444214   0.4799340   0.0000000), wk =   0.0014793
        k(  322) = (  -0.1333121   0.4607367   0.0000000), wk =   0.0014793
        k(  323) = (  -0.1222028   0.4415393   0.0000000), wk =   0.0014793
        k(  324) = (  -0.1110934   0.4223420   0.0000000), wk =   0.0014793
        k(  325) = (  -0.0999841   0.4031446   0.0000000), wk =   0.0014793
        k(  326) = (  -0.0888747   0.3839472   0.0000000), wk =   0.0014793
        k(  327) = (  -0.0777654   0.3647499   0.0000000), wk =   0.0014793
        k(  328) = (  -0.0666560   0.3455525   0.0000000), wk =   0.0014793
        k(  329) = (  -0.0555467   0.3263551   0.0000000), wk =   0.0014793
        k(  330) = (  -0.0444374   0.3071578   0.0000000), wk =   0.0014793
        k(  331) = (  -0.0333280   0.2879604   0.0000000), wk =   0.0014793
        k(  332) = (  -0.0222187   0.2687631   0.0000000), wk =   0.0014793
        k(  333) = (  -0.0111093   0.2495657   0.0000000), wk =   0.0014793
        k(  334) = (  -0.0000000   0.2303683   0.0000000), wk =   0.0014793
        k(  335) = (   0.0111093   0.2111710   0.0000000), wk =   0.0014793
        k(  336) = (   0.0222187   0.1919736   0.0000000), wk =   0.0014793
        k(  337) = (   0.0333280   0.1727763   0.0000000), wk =   0.0014793
        k(  338) = (   0.0444374   0.1535789   0.0000000), wk =   0.0014793
        k(  339) = (   0.0555467   0.1343815   0.0000000), wk =   0.0014793
        k(  340) = (   0.0777654   0.1343815   0.0000000), wk =   0.0014793
        k(  341) = (   0.0888747   0.1151842   0.0000000), wk =   0.0014793
        k(  342) = (   0.0999841   0.0959868   0.0000000), wk =   0.0014793
        k(  343) = (   0.1110934   0.0767894   0.0000000), wk =   0.0014793
        k(  344) = (   0.1222028   0.0575921   0.0000000), wk =   0.0014793
        k(  345) = (   0.1333121   0.0383947   0.0000000), wk =   0.0014793
        k(  346) = (   0.1444214   0.0191974   0.0000000), wk =   0.0014793
        k(  347) = (   0.1555308   0.0000000   0.0000000), wk =   0.0014793
        k(  348) = (   0.1666401  -0.0191974   0.0000000), wk =   0.0014793
        k(  349) = (   0.1777495  -0.0383947   0.0000000), wk =   0.0014793
        k(  350) = (   0.1888588  -0.0575921   0.0000000), wk =   0.0014793
        k(  351) = (   0.1999681  -0.0767894   0.0000000), wk =   0.0014793
        k(  352) = (   0.2110775  -0.0959868   0.0000000), wk =   0.0014793
        k(  353) = (   0.2221868  -0.1151842   0.0000000), wk =   0.0014793
        k(  354) = (   0.2332962  -0.1343815   0.0000000), wk =   0.0014793
        k(  355) = (   0.2444055  -0.1535789   0.0000000), wk =   0.0014793
        k(  356) = (   0.2555149  -0.1727763   0.0000000), wk =   0.0014793
        k(  357) = (   0.2666242  -0.1919736   0.0000000), wk =   0.0014793
        k(  358) = (   0.2777335  -0.2111710   0.0000000), wk =   0.0014793
        k(  359) = (   0.2888429  -0.2303683   0.0000000), wk =   0.0014793
        k(  360) = (   0.2999522  -0.2495657   0.0000000), wk =   0.0014793
        k(  361) = (   0.3110616  -0.2687631   0.0000000), wk =   0.0014793
        k(  362) = (   0.3221709  -0.2879604   0.0000000), wk =   0.0014793
        k(  363) = (   0.3332802  -0.3071578   0.0000000), wk =   0.0014793
        k(  364) = (   0.3443896  -0.3263551   0.0000000), wk =   0.0014793
        k(  365) = (   0.3554989  -0.3455525   0.0000000), wk =   0.0014793
        k(  366) = (  -0.2110775   0.6335129   0.0000000), wk =   0.0014793
        k(  367) = (  -0.1999681   0.6143156   0.0000000), wk =   0.0014793
        k(  368) = (  -0.1888588   0.5951182   0.0000000), wk =   0.0014793
        k(  369) = (  -0.1777495   0.5759208   0.0000000), wk =   0.0014793
        k(  370) = (  -0.1666401   0.5567235   0.0000000), wk =   0.0014793
        k(  371) = (  -0.1555308   0.5375261   0.0000000), wk =   0.0014793
        k(  372) = (  -0.1444214   0.5183288   0.0000000), wk =   0.0014793
        k(  373) = (  -0.1333121   0.4991314   0.0000000), wk =   0.0014793
        k(  374) = (  -0.1222028   0.4799340   0.0000000), wk =   0.0014793
        k(  375) = (  -0.1110934   0.4607367   0.0000000), wk =   0.0014793
        k(  376) = (  -0.0999841   0.4415393   0.0000000), wk =   0.0014793
        k(  377) = (  -0.0888747   0.4223420   0.0000000), wk =   0.0014793
        k(  378) = (  -0.0777654   0.4031446   0.0000000), wk =   0.0014793
        k(  379) = (  -0.0666560   0.3839472   0.0000000), wk =   0.0014793
        k(  380) = (  -0.0555467   0.3647499   0.0000000), wk =   0.0014793
        k(  381) = (  -0.0444374   0.3455525   0.0000000), wk =   0.0014793
        k(  382) = (  -0.0333280   0.3263551   0.0000000), wk =   0.0014793
        k(  383) = (  -0.0222187   0.3071578   0.0000000), wk =   0.0014793
        k(  384) = (  -0.0111093   0.2879604   0.0000000), wk =   0.0014793
        k(  385) = (   0.0000000   0.2687631   0.0000000), wk =   0.0014793
        k(  386) = (   0.0111093   0.2495657   0.0000000), wk =   0.0014793
        k(  387) = (   0.0222187   0.2303683   0.0000000), wk =   0.0014793
        k(  388) = (   0.0333280   0.2111710   0.0000000), wk =   0.0014793
        k(  389) = (   0.0444374   0.1919736   0.0000000), wk =   0.0014793
        k(  390) = (   0.0555467   0.1727763   0.0000000), wk =   0.0014793
        k(  391) = (   0.0666560   0.1535789   0.0000000), wk =   0.0014793
        k(  392) = (   0.0888747   0.1535789   0.0000000), wk =   0.0014793
        k(  393) = (   0.0999841   0.1343815   0.0000000), wk =   0.0014793
        k(  394) = (   0.1110934   0.1151842   0.0000000), wk =   0.0014793
        k(  395) = (   0.1222028   0.0959868   0.0000000), wk =   0.0014793
        k(  396) = (   0.1333121   0.0767894   0.0000000), wk =   0.0014793
        k(  397) = (   0.1444214   0.0575921   0.0000000), wk =   0.0014793
        k(  398) = (   0.1555308   0.0383947   0.0000000), wk =   0.0014793
        k(  399) = (   0.1666401   0.0191974   0.0000000), wk =   0.0014793
        k(  400) = (   0.1777495   0.0000000   0.0000000), wk =   0.0014793
        k(  401) = (   0.1888588  -0.0191974   0.0000000), wk =   0.0014793
        k(  402) = (   0.1999681  -0.0383947   0.0000000), wk =   0.0014793
        k(  403) = (   0.2110775  -0.0575921   0.0000000), wk =   0.0014793
        k(  404) = (   0.2221868  -0.0767894   0.0000000), wk =   0.0014793
        k(  405) = (   0.2332962  -0.0959868   0.0000000), wk =   0.0014793
        k(  406) = (   0.2444055  -0.1151842   0.0000000), wk =   0.0014793
        k(  407) = (   0.2555149  -0.1343815   0.0000000), wk =   0.0014793
        k(  408) = (   0.2666242  -0.1535789   0.0000000), wk =   0.0014793
        k(  409) = (   0.2777335  -0.1727763   0.0000000), wk =   0.0014793
        k(  410) = (   0.2888429  -0.1919736   0.0000000), wk =   0.0014793
        k(  411) = (   0.2999522  -0.2111710   0.0000000), wk =   0.0014793
        k(  412) = (   0.3110616  -0.2303683   0.0000000), wk =   0.0014793
        k(  413) = (   0.3221709  -0.2495657   0.0000000), wk =   0.0014793
        k(  414) = (   0.3332802  -0.2687631   0.0000000), wk =   0.0014793
        k(  415) = (   0.3443896  -0.2879604   0.0000000), wk =   0.0014793
        k(  416) = (   0.3554989  -0.3071578   0.0000000), wk =   0.0014793
        k(  417) = (   0.3666083  -0.3263551   0.0000000), wk =   0.0014793
        k(  418) = (  -0.1999681   0.6527103   0.0000000), wk =   0.0014793
        k(  419) = (  -0.1888588   0.6335129   0.0000000), wk =   0.0014793
        k(  420) = (  -0.1777495   0.6143156   0.0000000), wk =   0.0014793
        k(  421) = (  -0.1666401   0.5951182   0.0000000), wk =   0.0014793
        k(  422) = (  -0.1555308   0.5759208   0.0000000), wk =   0.0014793
        k(  423) = (  -0.1444214   0.5567235   0.0000000), wk =   0.0014793
        k(  424) = (  -0.1333121   0.5375261   0.0000000), wk =   0.0014793
        k(  425) = (  -0.1222028   0.5183288   0.0000000), wk =   0.0014793
        k(  426) = (  -0.1110934   0.4991314   0.0000000), wk =   0.0014793
        k(  427) = (  -0.0999841   0.4799340   0.0000000), wk =   0.0014793
        k(  428) = (  -0.0888747   0.4607367   0.0000000), wk =   0.0014793
        k(  429) = (  -0.0777654   0.4415393   0.0000000), wk =   0.0014793
        k(  430) = (  -0.0666560   0.4223420   0.0000000), wk =   0.0014793
        k(  431) = (  -0.0555467   0.4031446   0.0000000), wk =   0.0014793
        k(  432) = (  -0.0444374   0.3839472   0.0000000), wk =   0.0014793
        k(  433) = (  -0.0333280   0.3647499   0.0000000), wk =   0.0014793
        k(  434) = (  -0.0222187   0.3455525   0.0000000), wk =   0.0014793
        k(  435) = (  -0.0111093   0.3263551   0.0000000), wk =   0.0014793
        k(  436) = (   0.0000000   0.3071578   0.0000000), wk =   0.0014793
        k(  437) = (   0.0111093   0.2879604   0.0000000), wk =   0.0014793
        k(  438) = (   0.0222187   0.2687631   0.0000000), wk =   0.0014793
        k(  439) = (   0.0333280   0.2495657   0.0000000), wk =   0.0014793
        k(  440) = (   0.0444374   0.2303683   0.0000000), wk =   0.0014793
        k(  441) = (   0.0555467   0.2111710   0.0000000), wk =   0.0014793
        k(  442) = (   0.0666560   0.1919736   0.0000000), wk =   0.0014793
        k(  443) = (   0.0777654   0.1727763   0.0000000), wk =   0.0014793
        k(  444) = (   0.0999841   0.1727763   0.0000000), wk =   0.0014793
        k(  445) = (   0.1110934   0.1535789   0.0000000), wk =   0.0014793
        k(  446) = (   0.1222028   0.1343815   0.0000000), wk =   0.0014793
        k(  447) = (   0.1333121   0.1151842   0.0000000), wk =   0.0014793
        k(  448) = (   0.1444214   0.0959868   0.0000000), wk =   0.0014793
        k(  449) = (   0.1555308   0.0767894   0.0000000), wk =   0.0014793
        k(  450) = (   0.1666401   0.0575921   0.0000000), wk =   0.0014793
        k(  451) = (   0.1777495   0.0383947   0.0000000), wk =   0.0014793
        k(  452) = (   0.1888588   0.0191974   0.0000000), wk =   0.0014793
        k(  453) = (   0.1999681   0.0000000   0.0000000), wk =   0.0014793
        k(  454) = (   0.2110775  -0.0191974   0.0000000), wk =   0.0014793
        k(  455) = (   0.2221868  -0.0383947   0.0000000), wk =   0.0014793
        k(  456) = (   0.2332962  -0.0575921   0.0000000), wk =   0.0014793
        k(  457) = (   0.2444055  -0.0767894   0.0000000), wk =   0.0014793
        k(  458) = (   0.2555149  -0.0959868   0.0000000), wk =   0.0014793
        k(  459) = (   0.2666242  -0.1151842   0.0000000), wk =   0.0014793
        k(  460) = (   0.2777335  -0.1343815   0.0000000), wk =   0.0014793
        k(  461) = (   0.2888429  -0.1535789   0.0000000), wk =   0.0014793
        k(  462) = (   0.2999522  -0.1727763   0.0000000), wk =   0.0014793
        k(  463) = (   0.3110616  -0.1919736   0.0000000), wk =   0.0014793
        k(  464) = (   0.3221709  -0.2111710   0.0000000), wk =   0.0014793
        k(  465) = (   0.3332802  -0.2303683   0.0000000), wk =   0.0014793
        k(  466) = (   0.3443896  -0.2495657   0.0000000), wk =   0.0014793
        k(  467) = (   0.3554989  -0.2687631   0.0000000), wk =   0.0014793
        k(  468) = (   0.3666083  -0.2879604   0.0000000), wk =   0.0014793
        k(  469) = (   0.3777176  -0.3071578   0.0000000), wk =   0.0014793
        k(  470) = (  -0.1888588   0.6719077   0.0000000), wk =   0.0014793
        k(  471) = (  -0.1777495   0.6527103   0.0000000), wk =   0.0014793
        k(  472) = (  -0.1666401   0.6335129   0.0000000), wk =   0.0014793
        k(  473) = (  -0.1555308   0.6143156   0.0000000), wk =   0.0014793
        k(  474) = (  -0.1444214   0.5951182   0.0000000), wk =   0.0014793
        k(  475) = (  -0.1333121   0.5759208   0.0000000), wk =   0.0014793
        k(  476) = (  -0.1222028   0.5567235   0.0000000), wk =   0.0014793
        k(  477) = (  -0.1110934   0.5375261   0.0000000), wk =   0.0014793
        k(  478) = (  -0.0999841   0.5183288   0.0000000), wk =   0.0014793
        k(  479) = (  -0.0888747   0.4991314   0.0000000), wk =   0.0014793
        k(  480) = (  -0.0777654   0.4799340   0.0000000), wk =   0.0014793
        k(  481) = (  -0.0666560   0.4607367   0.0000000), wk =   0.0014793
        k(  482) = (  -0.0555467   0.4415393   0.0000000), wk =   0.0014793
        k(  483) = (  -0.0444374   0.4223420   0.0000000), wk =   0.0014793
        k(  484) = (  -0.0333280   0.4031446   0.0000000), wk =   0.0014793
        k(  485) = (  -0.0222187   0.3839472   0.0000000), wk =   0.0014793
        k(  486) = (  -0.0111093   0.3647499   0.0000000), wk =   0.0014793
        k(  487) = (  -0.0000000   0.3455525   0.0000000), wk =   0.0014793
        k(  488) = (   0.0111093   0.3263551   0.0000000), wk =   0.0014793
        k(  489) = (   0.0222187   0.3071578   0.0000000), wk =   0.0014793
        k(  490) = (   0.0333280   0.2879604   0.0000000), wk =   0.0014793
        k(  491) = (   0.0444374   0.2687631   0.0000000), wk =   0.0014793
        k(  492) = (   0.0555467   0.2495657   0.0000000), wk =   0.0014793
        k(  493) = (   0.0666560   0.2303683   0.0000000), wk =   0.0014793
        k(  494) = (   0.0777654   0.2111710   0.0000000), wk =   0.0014793
        k(  495) = (   0.0888747   0.1919736   0.0000000), wk =   0.0014793
        k(  496) = (   0.1110934   0.1919736   0.0000000), wk =   0.0014793
        k(  497) = (   0.1222028   0.1727763   0.0000000), wk =   0.0014793
        k(  498) = (   0.1333121   0.1535789   0.0000000), wk =   0.0014793
        k(  499) = (   0.1444214   0.1343815   0.0000000), wk =   0.0014793
        k(  500) = (   0.1555308   0.1151842   0.0000000), wk =   0.0014793
        k(  501) = (   0.1666401   0.0959868   0.0000000), wk =   0.0014793
        k(  502) = (   0.1777495   0.0767894   0.0000000), wk =   0.0014793
        k(  503) = (   0.1888588   0.0575921   0.0000000), wk =   0.0014793
        k(  504) = (   0.1999681   0.0383947   0.0000000), wk =   0.0014793
        k(  505) = (   0.2110775   0.0191974   0.0000000), wk =   0.0014793
        k(  506) = (   0.2221868   0.0000000   0.0000000), wk =   0.0014793
        k(  507) = (   0.2332962  -0.0191974   0.0000000), wk =   0.0014793
        k(  508) = (   0.2444055  -0.0383947   0.0000000), wk =   0.0014793
        k(  509) = (   0.2555149  -0.0575921   0.0000000), wk =   0.0014793
        k(  510) = (   0.2666242  -0.0767894   0.0000000), wk =   0.0014793
        k(  511) = (   0.2777335  -0.0959868   0.0000000), wk =   0.0014793
        k(  512) = (   0.2888429  -0.1151842   0.0000000), wk =   0.0014793
        k(  513) = (   0.2999522  -0.1343815   0.0000000), wk =   0.0014793
        k(  514) = (   0.3110616  -0.1535789   0.0000000), wk =   0.0014793
        k(  515) = (   0.3221709  -0.1727763   0.0000000), wk =   0.0014793
        k(  516) = (   0.3332802  -0.1919736   0.0000000), wk =   0.0014793
        k(  517) = (   0.3443896  -0.2111710   0.0000000), wk =   0.0014793
        k(  518) = (   0.3554989  -0.2303683   0.0000000), wk =   0.0014793
        k(  519) = (   0.3666083  -0.2495657   0.0000000), wk =   0.0014793
        k(  520) = (   0.3777176  -0.2687631   0.0000000), wk =   0.0014793
        k(  521) = (   0.3888270  -0.2879604   0.0000000), wk =   0.0014793
        k(  522) = (  -0.1777495   0.6911050   0.0000000), wk =   0.0014793
        k(  523) = (  -0.1666401   0.6719077   0.0000000), wk =   0.0014793
        k(  524) = (  -0.1555308   0.6527103   0.0000000), wk =   0.0014793
        k(  525) = (  -0.1444214   0.6335129   0.0000000), wk =   0.0014793
        k(  526) = (  -0.1333121   0.6143156   0.0000000), wk =   0.0014793
        k(  527) = (  -0.1222028   0.5951182   0.0000000), wk =   0.0014793
        k(  528) = (  -0.1110934   0.5759208   0.0000000), wk =   0.0014793
        k(  529) = (  -0.0999841   0.5567235   0.0000000), wk =   0.0014793
        k(  530) = (  -0.0888747   0.5375261   0.0000000), wk =   0.0014793
        k(  531) = (  -0.0777654   0.5183288   0.0000000), wk =   0.0014793
        k(  532) = (  -0.0666560   0.4991314   0.0000000), wk =   0.0014793
        k(  533) = (  -0.0555467   0.4799340   0.0000000), wk =   0.0014793
        k(  534) = (  -0.0444374   0.4607367   0.0000000), wk =   0.0014793
        k(  535) = (  -0.0333280   0.4415393   0.0000000), wk =   0.0014793
        k(  536) = (  -0.0222187   0.4223420   0.0000000), wk =   0.0014793
        k(  537) = (  -0.0111093   0.4031446   0.0000000), wk =   0.0014793
        k(  538) = (   0.0000000   0.3839472   0.0000000), wk =   0.0014793
        k(  539) = (   0.0111093   0.3647499   0.0000000), wk =   0.0014793
        k(  540) = (   0.0222187   0.3455525   0.0000000), wk =   0.0014793
        k(  541) = (   0.0333280   0.3263551   0.0000000), wk =   0.0014793
        k(  542) = (   0.0444374   0.3071578   0.0000000), wk =   0.0014793
        k(  543) = (   0.0555467   0.2879604   0.0000000), wk =   0.0014793
        k(  544) = (   0.0666560   0.2687631   0.0000000), wk =   0.0014793
        k(  545) = (   0.0777654   0.2495657   0.0000000), wk =   0.0014793
        k(  546) = (   0.0888747   0.2303683   0.0000000), wk =   0.0014793
        k(  547) = (   0.0999841   0.2111710   0.0000000), wk =   0.0014793
        k(  548) = (   0.1222028   0.2111710   0.0000000), wk =   0.0014793
        k(  549) = (   0.1333121   0.1919736   0.0000000), wk =   0.0014793
        k(  550) = (   0.1444214   0.1727763   0.0000000), wk =   0.0014793
        k(  551) = (   0.1555308   0.1535789   0.0000000), wk =   0.0014793
        k(  552) = (   0.1666401   0.1343815   0.0000000), wk =   0.0014793
        k(  553) = (   0.1777495   0.1151842   0.0000000), wk =   0.0014793
        k(  554) = (   0.1888588   0.0959868   0.0000000), wk =   0.0014793
        k(  555) = (   0.1999681   0.0767894   0.0000000), wk =   0.0014793
        k(  556) = (   0.2110775   0.0575921   0.0000000), wk =   0.0014793
        k(  557) = (   0.2221868   0.0383947   0.0000000), wk =   0.0014793
        k(  558) = (   0.2332962   0.0191974   0.0000000), wk =   0.0014793
        k(  559) = (   0.2444055   0.0000000   0.0000000), wk =   0.0014793
        k(  560) = (   0.2555149  -0.0191974   0.0000000), wk =   0.0014793
        k(  561) = (   0.2666242  -0.0383947   0.0000000), wk =   0.0014793
        k(  562) = (   0.2777335  -0.0575921   0.0000000), wk =   0.0014793
        k(  563) = (   0.2888429  -0.0767894   0.0000000), wk =   0.0014793
        k(  564) = (   0.2999522  -0.0959868   0.0000000), wk =   0.0014793
        k(  565) = (   0.3110616  -0.1151842   0.0000000), wk =   0.0014793
        k(  566) = (   0.3221709  -0.1343815   0.0000000), wk =   0.0014793
        k(  567) = (   0.3332802  -0.1535789   0.0000000), wk =   0.0014793
        k(  568) = (   0.3443896  -0.1727763   0.0000000), wk =   0.0014793
        k(  569) = (   0.3554989  -0.1919736   0.0000000), wk =   0.0014793
        k(  570) = (   0.3666083  -0.2111710   0.0000000), wk =   0.0014793
        k(  571) = (   0.3777176  -0.2303683   0.0000000), wk =   0.0014793
        k(  572) = (   0.3888270  -0.2495657   0.0000000), wk =   0.0014793
        k(  573) = (   0.3999363  -0.2687631   0.0000000), wk =   0.0014793
        k(  574) = (  -0.1666401   0.7103024   0.0000000), wk =   0.0014793
        k(  575) = (  -0.1555308   0.6911050   0.0000000), wk =   0.0014793
        k(  576) = (  -0.1444214   0.6719077   0.0000000), wk =   0.0014793
        k(  577) = (  -0.1333121   0.6527103   0.0000000), wk =   0.0014793
        k(  578) = (  -0.1222028   0.6335129   0.0000000), wk =   0.0014793
        k(  579) = (  -0.1110934   0.6143156   0.0000000), wk =   0.0014793
        k(  580) = (  -0.0999841   0.5951182   0.0000000), wk =   0.0014793
        k(  581) = (  -0.0888747   0.5759208   0.0000000), wk =   0.0014793
        k(  582) = (  -0.0777654   0.5567235   0.0000000), wk =   0.0014793
        k(  583) = (  -0.0666560   0.5375261   0.0000000), wk =   0.0014793
        k(  584) = (  -0.0555467   0.5183288   0.0000000), wk =   0.0014793
        k(  585) = (  -0.0444374   0.4991314   0.0000000), wk =   0.0014793
        k(  586) = (  -0.0333280   0.4799340   0.0000000), wk =   0.0014793
        k(  587) = (  -0.0222187   0.4607367   0.0000000), wk =   0.0014793
        k(  588) = (  -0.0111093   0.4415393   0.0000000), wk =   0.0014793
        k(  589) = (   0.0000000   0.4223420   0.0000000), wk =   0.0014793
        k(  590) = (   0.0111093   0.4031446   0.0000000), wk =   0.0014793
        k(  591) = (   0.0222187   0.3839472   0.0000000), wk =   0.0014793
        k(  592) = (   0.0333280   0.3647499   0.0000000), wk =   0.0014793
        k(  593) = (   0.0444374   0.3455525   0.0000000), wk =   0.0014793
        k(  594) = (   0.0555467   0.3263551   0.0000000), wk =   0.0014793
        k(  595) = (   0.0666560   0.3071578   0.0000000), wk =   0.0014793
        k(  596) = (   0.0777654   0.2879604   0.0000000), wk =   0.0014793
        k(  597) = (   0.0888747   0.2687631   0.0000000), wk =   0.0014793
        k(  598) = (   0.0999841   0.2495657   0.0000000), wk =   0.0014793
        k(  599) = (   0.1110934   0.2303683   0.0000000), wk =   0.0014793
        k(  600) = (   0.1333121   0.2303683   0.0000000), wk =   0.0014793
        k(  601) = (   0.1444214   0.2111710   0.0000000), wk =   0.0014793
        k(  602) = (   0.1555308   0.1919736   0.0000000), wk =   0.0014793
        k(  603) = (   0.1666401   0.1727763   0.0000000), wk =   0.0014793
        k(  604) = (   0.1777495   0.1535789   0.0000000), wk =   0.0014793
        k(  605) = (   0.1888588   0.1343815   0.0000000), wk =   0.0014793
        k(  606) = (   0.1999681   0.1151842   0.0000000), wk =   0.0014793
        k(  607) = (   0.2110775   0.0959868   0.0000000), wk =   0.0014793
        k(  608) = (   0.2221868   0.0767894   0.0000000), wk =   0.0014793
        k(  609) = (   0.2332962   0.0575921   0.0000000), wk =   0.0014793
        k(  610) = (   0.2444055   0.0383947   0.0000000), wk =   0.0014793
        k(  611) = (   0.2555149   0.0191974   0.0000000), wk =   0.0014793
        k(  612) = (   0.2666242   0.0000000   0.0000000), wk =   0.0014793
        k(  613) = (   0.2777335  -0.0191974   0.0000000), wk =   0.0014793
        k(  614) = (   0.2888429  -0.0383947   0.0000000), wk =   0.0014793
        k(  615) = (   0.2999522  -0.0575921   0.0000000), wk =   0.0014793
        k(  616) = (   0.3110616  -0.0767894   0.0000000), wk =   0.0014793
        k(  617) = (   0.3221709  -0.0959868   0.0000000), wk =   0.0014793
        k(  618) = (   0.3332802  -0.1151842   0.0000000), wk =   0.0014793
        k(  619) = (   0.3443896  -0.1343815   0.0000000), wk =   0.0014793
        k(  620) = (   0.3554989  -0.1535789   0.0000000), wk =   0.0014793
        k(  621) = (   0.3666083  -0.1727763   0.0000000), wk =   0.0014793
        k(  622) = (   0.3777176  -0.1919736   0.0000000), wk =   0.0014793
        k(  623) = (   0.3888270  -0.2111710   0.0000000), wk =   0.0014793
        k(  624) = (   0.3999363  -0.2303683   0.0000000), wk =   0.0014793
        k(  625) = (   0.4110456  -0.2495657   0.0000000), wk =   0.0014793
        k(  626) = (  -0.1555308   0.7294997   0.0000000), wk =   0.0014793
        k(  627) = (  -0.1444214   0.7103024   0.0000000), wk =   0.0014793
        k(  628) = (  -0.1333121   0.6911050   0.0000000), wk =   0.0014793
        k(  629) = (  -0.1222028   0.6719077   0.0000000), wk =   0.0014793
        k(  630) = (  -0.1110934   0.6527103   0.0000000), wk =   0.0014793
        k(  631) = (  -0.0999841   0.6335129   0.0000000), wk =   0.0014793
        k(  632) = (  -0.0888747   0.6143156   0.0000000), wk =   0.0014793
        k(  633) = (  -0.0777654   0.5951182   0.0000000), wk =   0.0014793
        k(  634) = (  -0.0666560   0.5759208   0.0000000), wk =   0.0014793
        k(  635) = (  -0.0555467   0.5567235   0.0000000), wk =   0.0014793
        k(  636) = (  -0.0444374   0.5375261   0.0000000), wk =   0.0014793
        k(  637) = (  -0.0333280   0.5183288   0.0000000), wk =   0.0014793
        k(  638) = (  -0.0222187   0.4991314   0.0000000), wk =   0.0014793
        k(  639) = (  -0.0111093   0.4799340   0.0000000), wk =   0.0014793
        k(  640) = (   0.0000000   0.4607367   0.0000000), wk =   0.0014793
        k(  641) = (   0.0111093   0.4415393   0.0000000), wk =   0.0014793
        k(  642) = (   0.0222187   0.4223420   0.0000000), wk =   0.0014793
        k(  643) = (   0.0333280   0.4031446   0.0000000), wk =   0.0014793
        k(  644) = (   0.0444374   0.3839472   0.0000000), wk =   0.0014793
        k(  645) = (   0.0555467   0.3647499   0.0000000), wk =   0.0014793
        k(  646) = (   0.0666560   0.3455525   0.0000000), wk =   0.0014793
        k(  647) = (   0.0777654   0.3263551   0.0000000), wk =   0.0014793
        k(  648) = (   0.0888747   0.3071578   0.0000000), wk =   0.0014793
        k(  649) = (   0.0999841   0.2879604   0.0000000), wk =   0.0014793
        k(  650) = (   0.1110934   0.2687631   0.0000000), wk =   0.0014793
        k(  651) = (   0.1222028   0.2495657   0.0000000), wk =   0.0014793
        k(  652) = (   0.1444214   0.2495657   0.0000000), wk =   0.0014793
        k(  653) = (   0.1555308   0.2303683   0.0000000), wk =   0.0014793
        k(  654) = (   0.1666401   0.2111710   0.0000000), wk =   0.0014793
        k(  655) = (   0.1777495   0.1919736   0.0000000), wk =   0.0014793
        k(  656) = (   0.1888588   0.1727763   0.0000000), wk =   0.0014793
        k(  657) = (   0.1999681   0.1535789   0.0000000), wk =   0.0014793
        k(  658) = (   0.2110775   0.1343815   0.0000000), wk =   0.0014793
        k(  659) = (   0.2221868   0.1151842   0.0000000), wk =   0.0014793
        k(  660) = (   0.2332962   0.0959868   0.0000000), wk =   0.0014793
        k(  661) = (   0.2444055   0.0767894   0.0000000), wk =   0.0014793
        k(  662) = (   0.2555149   0.0575921   0.0000000), wk =   0.0014793
        k(  663) = (   0.2666242   0.0383947   0.0000000), wk =   0.0014793
        k(  664) = (   0.2777335   0.0191974   0.0000000), wk =   0.0014793
        k(  665) = (   0.2888429   0.0000000   0.0000000), wk =   0.0014793
        k(  666) = (   0.2999522  -0.0191974   0.0000000), wk =   0.0014793
        k(  667) = (   0.3110616  -0.0383947   0.0000000), wk =   0.0014793
        k(  668) = (   0.3221709  -0.0575921   0.0000000), wk =   0.0014793
        k(  669) = (   0.3332802  -0.0767894   0.0000000), wk =   0.0014793
        k(  670) = (   0.3443896  -0.0959868   0.0000000), wk =   0.0014793
        k(  671) = (   0.3554989  -0.1151842   0.0000000), wk =   0.0014793
        k(  672) = (   0.3666083  -0.1343815   0.0000000), wk =   0.0014793
        k(  673) = (   0.3777176  -0.1535789   0.0000000), wk =   0.0014793
        k(  674) = (   0.3888270  -0.1727763   0.0000000), wk =   0.0014793
        k(  675) = (   0.3999363  -0.1919736   0.0000000), wk =   0.0014793
        k(  676) = (   0.4110456  -0.2111710   0.0000000), wk =   0.0014793
        k(  677) = (   0.4221550  -0.2303683   0.0000000), wk =   0.0014793
        k(  678) = (  -0.1444214   0.7486971   0.0000000), wk =   0.0014793
        k(  679) = (  -0.1333121   0.7294997   0.0000000), wk =   0.0014793
        k(  680) = (  -0.1222028   0.7103024   0.0000000), wk =   0.0014793
        k(  681) = (  -0.1110934   0.6911050   0.0000000), wk =   0.0014793
        k(  682) = (  -0.0999841   0.6719077   0.0000000), wk =   0.0014793
        k(  683) = (  -0.0888747   0.6527103   0.0000000), wk =   0.0014793
        k(  684) = (  -0.0777654   0.6335129   0.0000000), wk =   0.0014793
        k(  685) = (  -0.0666560   0.6143156   0.0000000), wk =   0.0014793
        k(  686) = (  -0.0555467   0.5951182   0.0000000), wk =   0.0014793
        k(  687) = (  -0.0444374   0.5759208   0.0000000), wk =   0.0014793
        k(  688) = (  -0.0333280   0.5567235   0.0000000), wk =   0.0014793
        k(  689) = (  -0.0222187   0.5375261   0.0000000), wk =   0.0014793
        k(  690) = (  -0.0111093   0.5183288   0.0000000), wk =   0.0014793
        k(  691) = (   0.0000000   0.4991314   0.0000000), wk =   0.0014793
        k(  692) = (   0.0111093   0.4799340   0.0000000), wk =   0.0014793
        k(  693) = (   0.0222187   0.4607367   0.0000000), wk =   0.0014793
        k(  694) = (   0.0333280   0.4415393   0.0000000), wk =   0.0014793
        k(  695) = (   0.0444374   0.4223420   0.0000000), wk =   0.0014793
        k(  696) = (   0.0555467   0.4031446   0.0000000), wk =   0.0014793
        k(  697) = (   0.0666560   0.3839472   0.0000000), wk =   0.0014793
        k(  698) = (   0.0777654   0.3647499   0.0000000), wk =   0.0014793
        k(  699) = (   0.0888747   0.3455525   0.0000000), wk =   0.0014793
        k(  700) = (   0.0999841   0.3263551   0.0000000), wk =   0.0014793
        k(  701) = (   0.1110934   0.3071578   0.0000000), wk =   0.0014793
        k(  702) = (   0.1222028   0.2879604   0.0000000), wk =   0.0014793
        k(  703) = (   0.1333121   0.2687631   0.0000000), wk =   0.0014793
        k(  704) = (   0.1555308   0.2687631   0.0000000), wk =   0.0014793
        k(  705) = (   0.1666401   0.2495657   0.0000000), wk =   0.0014793
        k(  706) = (   0.1777495   0.2303683   0.0000000), wk =   0.0014793
        k(  707) = (   0.1888588   0.2111710   0.0000000), wk =   0.0014793
        k(  708) = (   0.1999681   0.1919736   0.0000000), wk =   0.0014793
        k(  709) = (   0.2110775   0.1727763   0.0000000), wk =   0.0014793
        k(  710) = (   0.2221868   0.1535789   0.0000000), wk =   0.0014793
        k(  711) = (   0.2332962   0.1343815   0.0000000), wk =   0.0014793
        k(  712) = (   0.2444055   0.1151842   0.0000000), wk =   0.0014793
        k(  713) = (   0.2555149   0.0959868   0.0000000), wk =   0.0014793
        k(  714) = (   0.2666242   0.0767894   0.0000000), wk =   0.0014793
        k(  715) = (   0.2777335   0.0575921   0.0000000), wk =   0.0014793
        k(  716) = (   0.2888429   0.0383947   0.0000000), wk =   0.0014793
        k(  717) = (   0.2999522   0.0191974   0.0000000), wk =   0.0014793
        k(  718) = (   0.3110616   0.0000000   0.0000000), wk =   0.0014793
        k(  719) = (   0.3221709  -0.0191974   0.0000000), wk =   0.0014793
        k(  720) = (   0.3332802  -0.0383947   0.0000000), wk =   0.0014793
        k(  721) = (   0.3443896  -0.0575921   0.0000000), wk =   0.0014793
        k(  722) = (   0.3554989  -0.0767894   0.0000000), wk =   0.0014793
        k(  723) = (   0.3666083  -0.0959868   0.0000000), wk =   0.0014793
        k(  724) = (   0.3777176  -0.1151842   0.0000000), wk =   0.0014793
        k(  725) = (   0.3888270  -0.1343815   0.0000000), wk =   0.0014793
        k(  726) = (   0.3999363  -0.1535789   0.0000000), wk =   0.0014793
        k(  727) = (   0.4110456  -0.1727763   0.0000000), wk =   0.0014793
        k(  728) = (   0.4221550  -0.1919736   0.0000000), wk =   0.0014793
        k(  729) = (   0.4332643  -0.2111710   0.0000000), wk =   0.0014793
        k(  730) = (  -0.1333121   0.7678945   0.0000000), wk =   0.0014793
        k(  731) = (  -0.1222028   0.7486971   0.0000000), wk =   0.0014793
        k(  732) = (  -0.1110934   0.7294997   0.0000000), wk =   0.0014793
        k(  733) = (  -0.0999841   0.7103024   0.0000000), wk =   0.0014793
        k(  734) = (  -0.0888747   0.6911050   0.0000000), wk =   0.0014793
        k(  735) = (  -0.0777654   0.6719077   0.0000000), wk =   0.0014793
        k(  736) = (  -0.0666560   0.6527103   0.0000000), wk =   0.0014793
        k(  737) = (  -0.0555467   0.6335129   0.0000000), wk =   0.0014793
        k(  738) = (  -0.0444374   0.6143156   0.0000000), wk =   0.0014793
        k(  739) = (  -0.0333280   0.5951182   0.0000000), wk =   0.0014793
        k(  740) = (  -0.0222187   0.5759208   0.0000000), wk =   0.0014793
        k(  741) = (  -0.0111093   0.5567235   0.0000000), wk =   0.0014793
        k(  742) = (   0.0000000   0.5375261   0.0000000), wk =   0.0014793
        k(  743) = (   0.0111093   0.5183288   0.0000000), wk =   0.0014793
        k(  744) = (   0.0222187   0.4991314   0.0000000), wk =   0.0014793
        k(  745) = (   0.0333280   0.4799340   0.0000000), wk =   0.0014793
        k(  746) = (   0.0444374   0.4607367   0.0000000), wk =   0.0014793
        k(  747) = (   0.0555467   0.4415393   0.0000000), wk =   0.0014793
        k(  748) = (   0.0666560   0.4223420   0.0000000), wk =   0.0014793
        k(  749) = (   0.0777654   0.4031446   0.0000000), wk =   0.0014793
        k(  750) = (   0.0888747   0.3839472   0.0000000), wk =   0.0014793
        k(  751) = (   0.0999841   0.3647499   0.0000000), wk =   0.0014793
        k(  752) = (   0.1110934   0.3455525   0.0000000), wk =   0.0014793
        k(  753) = (   0.1222028   0.3263551   0.0000000), wk =   0.0014793
        k(  754) = (   0.1333121   0.3071578   0.0000000), wk =   0.0014793
        k(  755) = (   0.1444214   0.2879604   0.0000000), wk =   0.0014793
        k(  756) = (   0.1666401   0.2879604   0.0000000), wk =   0.0014793
        k(  757) = (   0.1777495   0.2687631   0.0000000), wk =   0.0014793
        k(  758) = (   0.1888588   0.2495657   0.0000000), wk =   0.0014793
        k(  759) = (   0.1999681   0.2303683   0.0000000), wk =   0.0014793
        k(  760) = (   0.2110775   0.2111710   0.0000000), wk =   0.0014793
        k(  761) = (   0.2221868   0.1919736   0.0000000), wk =   0.0014793
        k(  762) = (   0.2332962   0.1727763   0.0000000), wk =   0.0014793
        k(  763) = (   0.2444055   0.1535789   0.0000000), wk =   0.0014793
        k(  764) = (   0.2555149   0.1343815   0.0000000), wk =   0.0014793
        k(  765) = (   0.2666242   0.1151842   0.0000000), wk =   0.0014793
        k(  766) = (   0.2777335   0.0959868   0.0000000), wk =   0.0014793
        k(  767) = (   0.2888429   0.0767894   0.0000000), wk =   0.0014793
        k(  768) = (   0.2999522   0.0575921   0.0000000), wk =   0.0014793
        k(  769) = (   0.3110616   0.0383947   0.0000000), wk =   0.0014793
        k(  770) = (   0.3221709   0.0191974   0.0000000), wk =   0.0014793
        k(  771) = (   0.3332802   0.0000000   0.0000000), wk =   0.0014793
        k(  772) = (   0.3443896  -0.0191974   0.0000000), wk =   0.0014793
        k(  773) = (   0.3554989  -0.0383947   0.0000000), wk =   0.0014793
        k(  774) = (   0.3666083  -0.0575921   0.0000000), wk =   0.0014793
        k(  775) = (   0.3777176  -0.0767894   0.0000000), wk =   0.0014793
        k(  776) = (   0.3888270  -0.0959868   0.0000000), wk =   0.0014793
        k(  777) = (   0.3999363  -0.1151842   0.0000000), wk =   0.0014793
        k(  778) = (   0.4110456  -0.1343815   0.0000000), wk =   0.0014793
        k(  779) = (   0.4221550  -0.1535789   0.0000000), wk =   0.0014793
        k(  780) = (   0.4332643  -0.1727763   0.0000000), wk =   0.0014793
        k(  781) = (   0.4443737  -0.1919736   0.0000000), wk =   0.0014793
        k(  782) = (  -0.1222028   0.7870918   0.0000000), wk =   0.0014793
        k(  783) = (  -0.1110934   0.7678945   0.0000000), wk =   0.0014793
        k(  784) = (  -0.0999841   0.7486971   0.0000000), wk =   0.0014793
        k(  785) = (  -0.0888747   0.7294997   0.0000000), wk =   0.0014793
        k(  786) = (  -0.0777654   0.7103024   0.0000000), wk =   0.0014793
        k(  787) = (  -0.0666560   0.6911050   0.0000000), wk =   0.0014793
        k(  788) = (  -0.0555467   0.6719077   0.0000000), wk =   0.0014793
        k(  789) = (  -0.0444374   0.6527103   0.0000000), wk =   0.0014793
        k(  790) = (  -0.0333280   0.6335129   0.0000000), wk =   0.0014793
        k(  791) = (  -0.0222187   0.6143156   0.0000000), wk =   0.0014793
        k(  792) = (  -0.0111093   0.5951182   0.0000000), wk =   0.0014793
        k(  793) = (   0.0000000   0.5759208   0.0000000), wk =   0.0014793
        k(  794) = (   0.0111093   0.5567235   0.0000000), wk =   0.0014793
        k(  795) = (   0.0222187   0.5375261   0.0000000), wk =   0.0014793
        k(  796) = (   0.0333280   0.5183288   0.0000000), wk =   0.0014793
        k(  797) = (   0.0444374   0.4991314   0.0000000), wk =   0.0014793
        k(  798) = (   0.0555467   0.4799340   0.0000000), wk =   0.0014793
        k(  799) = (   0.0666560   0.4607367   0.0000000), wk =   0.0014793
        k(  800) = (   0.0777654   0.4415393   0.0000000), wk =   0.0014793
        k(  801) = (   0.0888747   0.4223420   0.0000000), wk =   0.0014793
        k(  802) = (   0.0999841   0.4031446   0.0000000), wk =   0.0014793
        k(  803) = (   0.1110934   0.3839472   0.0000000), wk =   0.0014793
        k(  804) = (   0.1222028   0.3647499   0.0000000), wk =   0.0014793
        k(  805) = (   0.1333121   0.3455525   0.0000000), wk =   0.0014793
        k(  806) = (   0.1444214   0.3263551   0.0000000), wk =   0.0014793
        k(  807) = (   0.1555308   0.3071578   0.0000000), wk =   0.0014793
        k(  808) = (   0.1777495   0.3071578   0.0000000), wk =   0.0014793
        k(  809) = (   0.1888588   0.2879604   0.0000000), wk =   0.0014793
        k(  810) = (   0.1999681   0.2687631   0.0000000), wk =   0.0014793
        k(  811) = (   0.2110775   0.2495657   0.0000000), wk =   0.0014793
        k(  812) = (   0.2221868   0.2303683   0.0000000), wk =   0.0014793
        k(  813) = (   0.2332962   0.2111710   0.0000000), wk =   0.0014793
        k(  814) = (   0.2444055   0.1919736   0.0000000), wk =   0.0014793
        k(  815) = (   0.2555149   0.1727763   0.0000000), wk =   0.0014793
        k(  816) = (   0.2666242   0.1535789   0.0000000), wk =   0.0014793
        k(  817) = (   0.2777335   0.1343815   0.0000000), wk =   0.0014793
        k(  818) = (   0.2888429   0.1151842   0.0000000), wk =   0.0014793
        k(  819) = (   0.2999522   0.0959868   0.0000000), wk =   0.0014793
        k(  820) = (   0.3110616   0.0767894   0.0000000), wk =   0.0014793
        k(  821) = (   0.3221709   0.0575921   0.0000000), wk =   0.0014793
        k(  822) = (   0.3332802   0.0383947   0.0000000), wk =   0.0014793
        k(  823) = (   0.3443896   0.0191974   0.0000000), wk =   0.0014793
        k(  824) = (   0.3554989   0.0000000   0.0000000), wk =   0.0014793
        k(  825) = (   0.3666083  -0.0191974   0.0000000), wk =   0.0014793
        k(  826) = (   0.3777176  -0.0383947   0.0000000), wk =   0.0014793
        k(  827) = (   0.3888270  -0.0575921   0.0000000), wk =   0.0014793
        k(  828) = (   0.3999363  -0.0767894   0.0000000), wk =   0.0014793
        k(  829) = (   0.4110456  -0.0959868   0.0000000), wk =   0.0014793
        k(  830) = (   0.4221550  -0.1151842   0.0000000), wk =   0.0014793
        k(  831) = (   0.4332643  -0.1343815   0.0000000), wk =   0.0014793
        k(  832) = (   0.4443737  -0.1535789   0.0000000), wk =   0.0014793
        k(  833) = (   0.4554830  -0.1727763   0.0000000), wk =   0.0014793
        k(  834) = (  -0.1110934   0.8062892   0.0000000), wk =   0.0014793
        k(  835) = (  -0.0999841   0.7870918   0.0000000), wk =   0.0014793
        k(  836) = (  -0.0888747   0.7678945   0.0000000), wk =   0.0014793
        k(  837) = (  -0.0777654   0.7486971   0.0000000), wk =   0.0014793
        k(  838) = (  -0.0666560   0.7294997   0.0000000), wk =   0.0014793
        k(  839) = (  -0.0555467   0.7103024   0.0000000), wk =   0.0014793
        k(  840) = (  -0.0444374   0.6911050   0.0000000), wk =   0.0014793
        k(  841) = (  -0.0333280   0.6719077   0.0000000), wk =   0.0014793
        k(  842) = (  -0.0222187   0.6527103   0.0000000), wk =   0.0014793
        k(  843) = (  -0.0111093   0.6335129   0.0000000), wk =   0.0014793
        k(  844) = (   0.0000000   0.6143156   0.0000000), wk =   0.0014793
        k(  845) = (   0.0111093   0.5951182   0.0000000), wk =   0.0014793
        k(  846) = (   0.0222187   0.5759208   0.0000000), wk =   0.0014793
        k(  847) = (   0.0333280   0.5567235   0.0000000), wk =   0.0014793
        k(  848) = (   0.0444374   0.5375261   0.0000000), wk =   0.0014793
        k(  849) = (   0.0555467   0.5183288   0.0000000), wk =   0.0014793
        k(  850) = (   0.0666560   0.4991314   0.0000000), wk =   0.0014793
        k(  851) = (   0.0777654   0.4799340   0.0000000), wk =   0.0014793
        k(  852) = (   0.0888747   0.4607367   0.0000000), wk =   0.0014793
        k(  853) = (   0.0999841   0.4415393   0.0000000), wk =   0.0014793
        k(  854) = (   0.1110934   0.4223420   0.0000000), wk =   0.0014793
        k(  855) = (   0.1222028   0.4031446   0.0000000), wk =   0.0014793
        k(  856) = (   0.1333121   0.3839472   0.0000000), wk =   0.0014793
        k(  857) = (   0.1444214   0.3647499   0.0000000), wk =   0.0014793
        k(  858) = (   0.1555308   0.3455525   0.0000000), wk =   0.0014793
        k(  859) = (   0.1666401   0.3263551   0.0000000), wk =   0.0014793
        k(  860) = (   0.1888588   0.3263551   0.0000000), wk =   0.0014793
        k(  861) = (   0.1999681   0.3071578   0.0000000), wk =   0.0014793
        k(  862) = (   0.2110775   0.2879604   0.0000000), wk =   0.0014793
        k(  863) = (   0.2221868   0.2687631   0.0000000), wk =   0.0014793
        k(  864) = (   0.2332962   0.2495657   0.0000000), wk =   0.0014793
        k(  865) = (   0.2444055   0.2303683   0.0000000), wk =   0.0014793
        k(  866) = (   0.2555149   0.2111710   0.0000000), wk =   0.0014793
        k(  867) = (   0.2666242   0.1919736   0.0000000), wk =   0.0014793
        k(  868) = (   0.2777335   0.1727763   0.0000000), wk =   0.0014793
        k(  869) = (   0.2888429   0.1535789   0.0000000), wk =   0.0014793
        k(  870) = (   0.2999522   0.1343815   0.0000000), wk =   0.0014793
        k(  871) = (   0.3110616   0.1151842   0.0000000), wk =   0.0014793
        k(  872) = (   0.3221709   0.0959868   0.0000000), wk =   0.0014793
        k(  873) = (   0.3332802   0.0767894   0.0000000), wk =   0.0014793
        k(  874) = (   0.3443896   0.0575921   0.0000000), wk =   0.0014793
        k(  875) = (   0.3554989   0.0383947   0.0000000), wk =   0.0014793
        k(  876) = (   0.3666083   0.0191974   0.0000000), wk =   0.0014793
        k(  877) = (   0.3777176   0.0000000   0.0000000), wk =   0.0014793
        k(  878) = (   0.3888270  -0.0191974   0.0000000), wk =   0.0014793
        k(  879) = (   0.3999363  -0.0383947   0.0000000), wk =   0.0014793
        k(  880) = (   0.4110456  -0.0575921   0.0000000), wk =   0.0014793
        k(  881) = (   0.4221550  -0.0767894   0.0000000), wk =   0.0014793
        k(  882) = (   0.4332643  -0.0959868   0.0000000), wk =   0.0014793
        k(  883) = (   0.4443737  -0.1151842   0.0000000), wk =   0.0014793
        k(  884) = (   0.4554830  -0.1343815   0.0000000), wk =   0.0014793
        k(  885) = (   0.4665923  -0.1535789   0.0000000), wk =   0.0014793
        k(  886) = (  -0.0999841   0.8254866   0.0000000), wk =   0.0014793
        k(  887) = (  -0.0888747   0.8062892   0.0000000), wk =   0.0014793
        k(  888) = (  -0.0777654   0.7870918   0.0000000), wk =   0.0014793
        k(  889) = (  -0.0666560   0.7678945   0.0000000), wk =   0.0014793
        k(  890) = (  -0.0555467   0.7486971   0.0000000), wk =   0.0014793
        k(  891) = (  -0.0444374   0.7294997   0.0000000), wk =   0.0014793
        k(  892) = (  -0.0333280   0.7103024   0.0000000), wk =   0.0014793
        k(  893) = (  -0.0222187   0.6911050   0.0000000), wk =   0.0014793
        k(  894) = (  -0.0111093   0.6719077   0.0000000), wk =   0.0014793
        k(  895) = (   0.0000000   0.6527103   0.0000000), wk =   0.0014793
        k(  896) = (   0.0111093   0.6335129   0.0000000), wk =   0.0014793
        k(  897) = (   0.0222187   0.6143156   0.0000000), wk =   0.0014793
        k(  898) = (   0.0333280   0.5951182   0.0000000), wk =   0.0014793
        k(  899) = (   0.0444374   0.5759208   0.0000000), wk =   0.0014793
        k(  900) = (   0.0555467   0.5567235   0.0000000), wk =   0.0014793
        k(  901) = (   0.0666560   0.5375261   0.0000000), wk =   0.0014793
        k(  902) = (   0.0777654   0.5183288   0.0000000), wk =   0.0014793
        k(  903) = (   0.0888747   0.4991314   0.0000000), wk =   0.0014793
        k(  904) = (   0.0999841   0.4799340   0.0000000), wk =   0.0014793
        k(  905) = (   0.1110934   0.4607367   0.0000000), wk =   0.0014793
        k(  906) = (   0.1222028   0.4415393   0.0000000), wk =   0.0014793
        k(  907) = (   0.1333121   0.4223420   0.0000000), wk =   0.0014793
        k(  908) = (   0.1444214   0.4031446   0.0000000), wk =   0.0014793
        k(  909) = (   0.1555308   0.3839472   0.0000000), wk =   0.0014793
        k(  910) = (   0.1666401   0.3647499   0.0000000), wk =   0.0014793
        k(  911) = (   0.1777495   0.3455525   0.0000000), wk =   0.0014793
        k(  912) = (   0.1999681   0.3455525   0.0000000), wk =   0.0014793
        k(  913) = (   0.2110775   0.3263551   0.0000000), wk =   0.0014793
        k(  914) = (   0.2221868   0.3071578   0.0000000), wk =   0.0014793
        k(  915) = (   0.2332962   0.2879604   0.0000000), wk =   0.0014793
        k(  916) = (   0.2444055   0.2687631   0.0000000), wk =   0.0014793
        k(  917) = (   0.2555149   0.2495657   0.0000000), wk =   0.0014793
        k(  918) = (   0.2666242   0.2303683   0.0000000), wk =   0.0014793
        k(  919) = (   0.2777335   0.2111710   0.0000000), wk =   0.0014793
        k(  920) = (   0.2888429   0.1919736   0.0000000), wk =   0.0014793
        k(  921) = (   0.2999522   0.1727763   0.0000000), wk =   0.0014793
        k(  922) = (   0.3110616   0.1535789   0.0000000), wk =   0.0014793
        k(  923) = (   0.3221709   0.1343815   0.0000000), wk =   0.0014793
        k(  924) = (   0.3332802   0.1151842   0.0000000), wk =   0.0014793
        k(  925) = (   0.3443896   0.0959868   0.0000000), wk =   0.0014793
        k(  926) = (   0.3554989   0.0767894   0.0000000), wk =   0.0014793
        k(  927) = (   0.3666083   0.0575921   0.0000000), wk =   0.0014793
        k(  928) = (   0.3777176   0.0383947   0.0000000), wk =   0.0014793
        k(  929) = (   0.3888270   0.0191974   0.0000000), wk =   0.0014793
        k(  930) = (   0.3999363   0.0000000   0.0000000), wk =   0.0014793
        k(  931) = (   0.4110456  -0.0191974   0.0000000), wk =   0.0014793
        k(  932) = (   0.4221550  -0.0383947   0.0000000), wk =   0.0014793
        k(  933) = (   0.4332643  -0.0575921   0.0000000), wk =   0.0014793
        k(  934) = (   0.4443737  -0.0767894   0.0000000), wk =   0.0014793
        k(  935) = (   0.4554830  -0.0959868   0.0000000), wk =   0.0014793
        k(  936) = (   0.4665923  -0.1151842   0.0000000), wk =   0.0014793
        k(  937) = (   0.4777017  -0.1343815   0.0000000), wk =   0.0014793
        k(  938) = (  -0.0888747   0.8446839   0.0000000), wk =   0.0014793
        k(  939) = (  -0.0777654   0.8254866   0.0000000), wk =   0.0014793
        k(  940) = (  -0.0666560   0.8062892   0.0000000), wk =   0.0014793
        k(  941) = (  -0.0555467   0.7870918   0.0000000), wk =   0.0014793
        k(  942) = (  -0.0444374   0.7678945   0.0000000), wk =   0.0014793
        k(  943) = (  -0.0333280   0.7486971   0.0000000), wk =   0.0014793
        k(  944) = (  -0.0222187   0.7294997   0.0000000), wk =   0.0014793
        k(  945) = (  -0.0111093   0.7103024   0.0000000), wk =   0.0014793
        k(  946) = (   0.0000000   0.6911050   0.0000000), wk =   0.0014793
        k(  947) = (   0.0111093   0.6719077   0.0000000), wk =   0.0014793
        k(  948) = (   0.0222187   0.6527103   0.0000000), wk =   0.0014793
        k(  949) = (   0.0333280   0.6335129   0.0000000), wk =   0.0014793
        k(  950) = (   0.0444374   0.6143156   0.0000000), wk =   0.0014793
        k(  951) = (   0.0555467   0.5951182   0.0000000), wk =   0.0014793
        k(  952) = (   0.0666560   0.5759208   0.0000000), wk =   0.0014793
        k(  953) = (   0.0777654   0.5567235   0.0000000), wk =   0.0014793
        k(  954) = (   0.0888747   0.5375261   0.0000000), wk =   0.0014793
        k(  955) = (   0.0999841   0.5183288   0.0000000), wk =   0.0014793
        k(  956) = (   0.1110934   0.4991314   0.0000000), wk =   0.0014793
        k(  957) = (   0.1222028   0.4799340   0.0000000), wk =   0.0014793
        k(  958) = (   0.1333121   0.4607367   0.0000000), wk =   0.0014793
        k(  959) = (   0.1444214   0.4415393   0.0000000), wk =   0.0014793
        k(  960) = (   0.1555308   0.4223420   0.0000000), wk =   0.0014793
        k(  961) = (   0.1666401   0.4031446   0.0000000), wk =   0.0014793
        k(  962) = (   0.1777495   0.3839472   0.0000000), wk =   0.0014793
        k(  963) = (   0.1888588   0.3647499   0.0000000), wk =   0.0014793
        k(  964) = (   0.2110775   0.3647499   0.0000000), wk =   0.0014793
        k(  965) = (   0.2221868   0.3455525   0.0000000), wk =   0.0014793
        k(  966) = (   0.2332962   0.3263551   0.0000000), wk =   0.0014793
        k(  967) = (   0.2444055   0.3071578   0.0000000), wk =   0.0014793
        k(  968) = (   0.2555149   0.2879604   0.0000000), wk =   0.0014793
        k(  969) = (   0.2666242   0.2687631   0.0000000), wk =   0.0014793
        k(  970) = (   0.2777335   0.2495657   0.0000000), wk =   0.0014793
        k(  971) = (   0.2888429   0.2303683   0.0000000), wk =   0.0014793
[...]
     0.0000   0.0000   0.0000   0.0000   0.0000   0.0000   0.0000   0.0000
     0.0000   0.0000   0.0000   0.0000   0.0000   0.0000

          k =-0.2777-0.5183 0.0000 ( 14598 PWs)   bands (ev):

   -15.0843 -15.0324  -9.0254  -8.5929  -5.8686  -5.3221  -5.2326  -4.9515
    -3.9084  -0.9708   0.5022   1.0520   1.4778   2.7527   4.0508   5.4279
     5.5394   5.6567   5.9675   6.6486   6.7086   7.0446   7.3099   7.5337
     7.7632   7.8261   8.6708   8.9322   9.1759   9.2981

     occupation numbers 
     1.0000   1.0000   1.0000   1.0000   1.0000   1.0000   1.0000   1.0000
     1.0000   0.0000   0.0000   0.0000   0.0000   0.0000   0.0000   0.0000
     0.0000   0.0000   0.0000   0.0000   0.0000   0.0000   0.0000   0.0000
     0.0000   0.0000   0.0000   0.0000   0.0000   0.0000

          k =-0.2666-0.5375 0.0000 ( 14608 PWs)   bands (ev):

   -15.0851 -15.0330  -9.0083  -8.5750  -5.8839  -5.3627  -5.2846  -4.9480
    -3.8909  -0.9357   0.5767   1.0727   1.5233   2.6735   4.0855   5.3334
     5.4505   5.7018   6.0511   6.6556   6.7153   7.0068   7.3966   7.4408
     7.8276   7.9607   8.5923   8.8519   9.1826   9.3306

     occupation numbers 
     1.0000   1.0000   1.0000   1.0000   1.0000   1.0000   1.0000   1.0000
     1.0000   0.0000   0.0000   0.0000   0.0000   0.0000   0.0000   0.0000
     0.0000   0.0000   0.0000   0.0000   0.0000   0.0000   0.0000   0.0000
     0.0000   0.0000   0.0000   0.0000   0.0000   0.0000

          k =-0.2555-0.5567 0.0000 ( 14617 PWs)   bands (ev):

   -15.0863 -15.0340  -8.9803  -8.5456  -5.9105  -5.4244  -5.3649  -4.9445
    -3.8628  -0.8822   0.6959   1.1078   1.6000   2.5564   4.1370   5.1987
     5.3420   5.7615   6.1608   6.5975   6.7783   6.9537   7.3754   7.5155
     7.9020   8.0922   8.5108   8.7698   9.0722   9.2758

     occupation numbers 
     1.0000   1.0000   1.0000   1.0000   1.0000   1.0000   1.0000   1.0000
     1.0000   0.0000   0.0000   0.0000   0.0000   0.0000   0.0000   0.0000
     0.0000   0.0000   0.0000   0.0000   0.0000   0.0000   0.0000   0.0000
     0.0000   0.0000   0.0000   0.0000   0.0000   0.0000

          k =-0.2444-0.5759 0.0000 ( 14629 PWs)   bands (ev):

   -15.0879 -15.0354  -8.9422  -8.5052  -5.9504  -5.4993  -5.4678  -4.9423
    -3.8258  -0.8165   0.8516   1.1597   1.7078   2.4169   4.2000   5.0328
     5.2408   5.8179   6.2786   6.5455   6.8014   6.8960   7.3481   7.6338
     7.9574   8.1852   8.4579   8.7144   8.9243   9.1360

     occupation numbers 
     1.0000   1.0000   1.0000   1.0000   1.0000   1.0000   1.0000   1.0000
     1.0000   0.0000   0.0000   0.0000   0.0000   0.0000   0.0000   0.0000
     0.0000   0.0000   0.0000   0.0000   0.0000   0.0000   0.0000   0.0000
     0.0000   0.0000   0.0000   0.0000   0.0000   0.0000

          k =-0.2333-0.5951 0.0000 ( 14625 PWs)   bands (ev):

   -15.0898 -15.0370  -8.8951  -8.4550  -6.0064  -5.5874  -5.5771  -4.9414
    -3.7822  -0.7452   1.0251   1.2396   1.8414   2.2738   4.2712   4.8526
     5.1497   5.8564   6.3899   6.4989   6.7741   6.8263   7.3411   7.6959
     8.0064   8.1936   8.4417   8.7153   8.7972   9.0253

     occupation numbers 
     1.0000   1.0000   1.0000   1.0000   1.0000   1.0000   1.0000   1.0000
     1.0000   0.0000   0.0000   0.0000   0.0000   0.0000   0.0000   0.0000
     0.0000   0.0000   0.0000   0.0000   0.0000   0.0000   0.0000   0.0000
     0.0000   0.0000   0.0000   0.0000   0.0000   0.0000

          k =-0.2222-0.6143 0.0000 ( 14623 PWs)   bands (ev):

   -15.0919 -15.0387  -8.8404  -8.3964  -6.0805  -5.7178  -5.6482  -4.9415
    -3.7343  -0.6743   1.1711   1.3842   1.9513   2.1868   4.3476   4.6718
     5.0667   5.8729   6.4496   6.4696   6.7135   6.7138   7.3162   7.6811
     8.0702   8.1458   8.4365   8.7155   8.7317   9.0424

     occupation numbers 
     1.0000   1.0000   1.0000   1.0000   1.0000   1.0000   1.0000   1.0000
     1.0000   0.0000   0.0000   0.0000   0.0000   0.0000   0.0000   0.0000
     0.0000   0.0000   0.0000   0.0000   0.0000   0.0000   0.0000   0.0000
     0.0000   0.0000   0.0000   0.0000   0.0000   0.0000

          k =-0.2111-0.6335 0.0000 ( 14594 PWs)   bands (ev):

   -15.0939 -15.0404  -8.7803  -8.3313  -6.1712  -5.8530  -5.7066  -4.9423
    -3.6847  -0.6081   1.2699   1.6030   1.8870   2.3131   4.4268   4.5005
     4.9899   5.8723   6.3730   6.4481   6.5443   6.6678   7.2713   7.6548
     8.0642   8.1222   8.4730   8.7096   8.7333   9.1462

     occupation numbers 
     1.0000   1.0000   1.0000   1.0000   1.0000   1.0000   1.0000   1.0000
     1.0000   0.0000   0.0000   0.0000   0.0000   0.0000   0.0000   0.0000
     0.0000   0.0000   0.0000   0.0000   0.0000   0.0000   0.0000   0.0000
     0.0000   0.0000   0.0000   0.0000   0.0000   0.0000

          k =-0.2000-0.6527 0.0000 ( 14597 PWs)   bands (ev):

   -15.0959 -15.0420  -8.7175  -8.2623  -6.2717  -5.9867  -5.7516  -4.9435
    -3.6363  -0.5496   1.3510   1.7596   1.8538   2.5453   4.3482   4.5052
     4.9167   5.8605   6.1694   6.2818   6.4262   6.6589   7.2524   7.6206
     8.0049   8.1434   8.5389   8.7496   8.8235   9.2826

     occupation numbers 
     1.0000   1.0000   1.0000   1.0000   1.0000   1.0000   1.0000   1.0000
     1.0000   0.0000   0.0000   0.0000   0.0000   0.0000   0.0000   0.0000
     0.0000   0.0000   0.0000   0.0000   0.0000   0.0000   0.0000   0.0000
     0.0000   0.0000   0.0000   0.0000   0.0000   0.0000

          k =-0.1889-0.6719 0.0000 ( 14589 PWs)   bands (ev):

   -15.0977 -15.0435  -8.6556  -8.1933  -6.3727  -6.1126  -5.7850  -4.9447
    -3.5918  -0.5003   1.4251   1.6380   2.1096   2.8157   4.2258   4.5790
     4.8423   5.7887   5.9138   6.0413   6.3734   6.6431   7.2761   7.5447
     7.9678   8.1941   8.6343   8.7879   9.0181   9.4334

     occupation numbers 
     1.0000   1.0000   1.0000   1.0000   1.0000   1.0000   1.0000   1.0000
     1.0000   0.0000   0.0000   0.0000   0.0000   0.0000   0.0000   0.0000
     0.0000   0.0000   0.0000   0.0000   0.0000   0.0000   0.0000   0.0000
     0.0000   0.0000   0.0000   0.0000   0.0000   0.0000

          k =-0.1777-0.6911 0.0000 ( 14602 PWs)   bands (ev):

   -15.0991 -15.0446  -8.5989  -8.1289  -6.4647  -6.2235  -5.8092  -4.9459
    -3.5538  -0.4613   1.4912   1.5351   2.3486   3.1088   4.1475   4.6433
     4.7581   5.4746   5.7877   5.8723   6.3378   6.6209   7.3185   7.4423
     7.9536   8.2604   8.7788   8.8444   9.2400   9.5685

     occupation numbers 
     1.0000   1.0000   1.0000   1.0000   1.0000   1.0000   1.0000   1.0000
     1.0000   0.0000   0.0000   0.0000   0.0000   0.0000   0.0000   0.0000
     0.0000   0.0000   0.0000   0.0000   0.0000   0.0000   0.0000   0.0000
     0.0000   0.0000   0.0000   0.0000   0.0000   0.0000

          k =-0.1666-0.7103 0.0000 ( 14605 PWs)   bands (ev):

   -15.1000 -15.0454  -8.5525  -8.0752  -6.5389  -6.3117  -5.8255  -4.9467
    -3.5245  -0.4331   1.4572   1.5447   2.5451   3.4093   4.1293   4.6519
     4.6923   5.1311   5.5713   5.8684   6.3126   6.6013   7.3477   7.3573
     7.9459   8.3293   8.9152   8.9623   9.4433   9.6307

     occupation numbers 
     1.0000   1.0000   1.0000   1.0000   1.0000   1.0000   1.0000   1.0000
     1.0000   0.0000   0.0000   0.0000   0.0000   0.0000   0.0000   0.0000
     0.0000   0.0000   0.0000   0.0000   0.0000   0.0000   0.0000   0.0000
     0.0000   0.0000   0.0000   0.0000   0.0000   0.0000

          k =-0.1555-0.7295 0.0000 ( 14607 PWs)   bands (ev):

   -15.1005 -15.0457  -8.5215  -8.0389  -6.5877  -6.3697  -5.8350  -4.9472
    -3.5058  -0.4164   1.4083   1.5805   2.6722   3.6802   4.1757   4.5238
     4.7123   4.8429   5.4320   5.8697   6.2972   6.5886   7.2827   7.3827
     7.9407   8.3837   8.9930   9.1646   9.4843   9.5014

     occupation numbers 
     1.0000   1.0000   1.0000   1.0000   1.0000   1.0000   1.0000   1.0000
     1.0000   0.0000   0.0000   0.0000   0.0000   0.0000   0.0000   0.0000
     0.0000   0.0000   0.0000   0.0000   0.0000   0.0000   0.0000   0.0000
     0.0000   0.0000   0.0000   0.0000   0.0000   0.0000

          k =-0.1444-0.7487 0.0000 ( 14599 PWs)   bands (ev):

   -15.1004 -15.0456  -8.5100  -8.0254  -6.6058  -6.3910  -5.8379  -4.9471
    -3.4990  -0.4114   1.3912   1.5939   2.7123   3.8041   4.2236   4.4468
     4.6649   4.7681   5.3879   5.8711   6.2923   6.5846   7.2592   7.3919
     7.9389   8.4062   9.0390   9.3357   9.3994   9.4080

     occupation numbers 
     1.0000   1.0000   1.0000   1.0000   1.0000   1.0000   1.0000   1.0000
     1.0000   0.0000   0.0000   0.0000   0.0000   0.0000   0.0000   0.0000
     0.0000   0.0000   0.0000   0.0000   0.0000   0.0000   0.0000   0.0000
     0.0000   0.0000   0.0000   0.0000   0.0000   0.0000

          k =-0.1333-0.7679 0.0000 ( 14596 PWs)   bands (ev):

   -15.0997 -15.0450  -8.5196  -8.0371  -6.5910  -6.3732  -5.8344  -4.9465
    -3.5043  -0.4183   1.4065   1.5830   2.6617   3.6600   4.1629   4.5361
     4.7153   4.8624   5.4410   5.8710   6.2982   6.5899   7.2810   7.3843
     7.9411   8.3893   8.9977   9.1731   9.4725   9.4997

     occupation numbers 
     1.0000   1.0000   1.0000   1.0000   1.0000   1.0000   1.0000   1.0000
     1.0000   0.0000   0.0000   0.0000   0.0000   0.0000   0.0000   0.0000
     0.0000   0.0000   0.0000   0.0000   0.0000   0.0000   0.0000   0.0000
     0.0000   0.0000   0.0000   0.0000   0.0000   0.0000

          k =-0.1222-0.7871 0.0000 ( 14604 PWs)   bands (ev):

   -15.0985 -15.0439  -8.5488  -8.0719  -6.5452  -6.3185  -5.8246  -4.9455
    -3.5216  -0.4369   1.4534   1.5494   2.5263   3.3833   4.1155   4.6629
     4.6943   5.1594   5.5888   5.8711   6.3145   6.6039   7.3447   7.3606
     7.9468   8.3393   8.9188   8.9715   9.4494   9.6161

     occupation numbers 
     1.0000   1.0000   1.0000   1.0000   1.0000   1.0000   1.0000   1.0000
     1.0000   0.0000   0.0000   0.0000   0.0000   0.0000   0.0000   0.0000
     0.0000   0.0000   0.0000   0.0000   0.0000   0.0000   0.0000   0.0000
     0.0000   0.0000   0.0000   0.0000   0.0000   0.0000

          k =-0.1111-0.8063 0.0000 ( 14591 PWs)   bands (ev):

   -15.0968 -15.0424  -8.5939  -8.1244  -6.4734  -6.2330  -5.8081  -4.9441
    -3.5496  -0.4668   1.4974   1.5295   2.3246   3.0818   4.1337   4.6459
     4.7667   5.5037   5.8112   5.8766   6.3407   6.6252   7.3234   7.4388
     7.9553   8.2728   8.7879   8.8460   9.2513   9.5747

     occupation numbers 
     1.0000   1.0000   1.0000   1.0000   1.0000   1.0000   1.0000   1.0000
     1.0000   0.0000   0.0000   0.0000   0.0000   0.0000   0.0000   0.0000
     0.0000   0.0000   0.0000   0.0000   0.0000   0.0000   0.0000   0.0000
     0.0000   0.0000   0.0000   0.0000   0.0000   0.0000

          k =-0.1000-0.8255 0.0000 ( 14605 PWs)   bands (ev):

   -15.0947 -15.0406  -8.6496  -8.1881  -6.3829  -6.1244  -5.7842  -4.9424
    -3.5865  -0.5074   1.4320   1.6305   2.0833   2.7891   4.2111   4.5822
     4.8497   5.8058   5.9296   6.0670   6.3775   6.6495   7.2827   7.5417
     7.9711   8.2075   8.6431   8.7889   9.0301   9.4358

     occupation numbers 
     1.0000   1.0000   1.0000   1.0000   1.0000   1.0000   1.0000   1.0000
     1.0000   0.0000   0.0000   0.0000   0.0000   0.0000   0.0000   0.0000
     0.0000   0.0000   0.0000   0.0000   0.0000   0.0000   0.0000   0.0000
     0.0000   0.0000   0.0000   0.0000   0.0000   0.0000

          k =-0.0889-0.8447 0.0000 ( 14605 PWs)   bands (ev):

   -15.0923 -15.0385  -8.7109  -8.2568  -6.2822  -6.0004  -5.7517  -4.9406
    -3.6302  -0.5581   1.3574   1.7506   1.8275   2.5194   4.3323   4.5087
     4.9238   5.8653   6.1929   6.3056   6.4330   6.6683   7.2605   7.6196
     8.0120   8.1574   8.5470   8.7516   8.8338   9.2830

     occupation numbers 
     1.0000   1.0000   1.0000   1.0000   1.0000   1.0000   1.0000   1.0000
     1.0000   0.0000   0.0000   0.0000   0.0000   0.0000   0.0000   0.0000
     0.0000   0.0000   0.0000   0.0000   0.0000   0.0000   0.0000   0.0000
     0.0000   0.0000   0.0000   0.0000   0.0000   0.0000

          k =-0.0778-0.8639 0.0000 ( 14603 PWs)   bands (ev):

   -15.0897 -15.0362  -8.7733  -8.3255  -6.1807  -5.8683  -5.7089  -4.9390
    -3.6779  -0.6179   1.2731   1.5800   1.8774   2.2872   4.4304   4.4833
     4.9973   5.8770   6.3837   6.4654   6.5592   6.6815   7.2802   7.6576
     8.0780   8.1379   8.4829   8.7141   8.7377   9.1451

     occupation numbers 
     1.0000   1.0000   1.0000   1.0000   1.0000   1.0000   1.0000   1.0000
     1.0000   0.0000   0.0000   0.0000   0.0000   0.0000   0.0000   0.0000
     0.0000   0.0000   0.0000   0.0000   0.0000   0.0000   0.0000   0.0000
     0.0000   0.0000   0.0000   0.0000   0.0000   0.0000

          k =-0.0667-0.8831 0.0000 ( 14621 PWs)   bands (ev):

   -15.0871 -15.0340  -8.8333  -8.3907  -6.0875  -5.7344  -5.6538  -4.9378
    -3.7270  -0.6853   1.1633   1.3726   1.9414   2.1608   4.3514   4.6534
     5.0747   5.8771   6.4558   6.4813   6.7263   6.7292   7.3235   7.6886
     8.0876   8.1647   8.4537   8.7133   8.7397   9.0551

     occupation numbers 
     1.0000   1.0000   1.0000   1.0000   1.0000   1.0000   1.0000   1.0000
     1.0000   0.0000   0.0000   0.0000   0.0000   0.0000   0.0000   0.0000
     0.0000   0.0000   0.0000   0.0000   0.0000   0.0000   0.0000   0.0000
     0.0000   0.0000   0.0000   0.0000   0.0000   0.0000

          k =-0.0555-0.9023 0.0000 ( 14629 PWs)   bands (ev):

   -15.0845 -15.0318  -8.8879  -8.4494  -6.0098  -5.6051  -5.5870  -4.9374
    -3.7746  -0.7573   1.0018   1.2438   1.8276   2.2513   4.2750   4.8335
     5.1582   5.8595   6.4009   6.5044   6.7869   6.8348   7.3452   7.7068
     8.0218   8.2146   8.4617   8.7248   8.7977   9.0397

     occupation numbers 
     1.0000   1.0000   1.0000   1.0000   1.0000   1.0000   1.0000   1.0000
     1.0000   0.0000   0.0000   0.0000   0.0000   0.0000   0.0000   0.0000
     0.0000   0.0000   0.0000   0.0000   0.0000   0.0000   0.0000   0.0000
     0.0000   0.0000   0.0000   0.0000   0.0000   0.0000

          k =-0.0444-0.9215 0.0000 ( 14629 PWs)   bands (ev):

   -15.0822 -15.0298  -8.9351  -8.4997  -5.9504  -5.5133  -5.4864  -4.9380
    -3.8180  -0.8294   0.8233   1.1693   1.6939   2.3939   4.2041   5.0139
     5.2490   5.8193   6.2895   6.5511   6.8102   6.9035   7.3514   7.6462
     7.9700   8.2049   8.4737   8.7233   8.9298   9.1547

     occupation numbers 
     1.0000   1.0000   1.0000   1.0000   1.0000   1.0000   1.0000   1.0000
     1.0000   0.0000   0.0000   0.0000   0.0000   0.0000   0.0000   0.0000
     0.0000   0.0000   0.0000   0.0000   0.0000   0.0000   0.0000   0.0000
     0.0000   0.0000   0.0000   0.0000   0.0000   0.0000

          k =-0.0333-0.9407 0.0000 ( 14606 PWs)   bands (ev):

   -15.0803 -15.0281  -8.9732  -8.5402  -5.9077  -5.4418  -5.3842  -4.9400
    -3.8548  -0.8958   0.6667   1.1187   1.5869   2.5318   4.1414   5.1829
     5.3470   5.7612   6.1717   6.6039   6.7824   6.9622   7.3807   7.5281
     7.9127   8.1091   8.5237   8.7790   9.0778   9.2943

     occupation numbers 
     1.0000   1.0000   1.0000   1.0000   1.0000   1.0000   1.0000   1.0000
     1.0000   0.0000   0.0000   0.0000   0.0000   0.0000   0.0000   0.0000
     0.0000   0.0000   0.0000   0.0000   0.0000   0.0000   0.0000   0.0000
     0.0000   0.0000   0.0000   0.0000   0.0000   0.0000

          k =-0.0222-0.9599 0.0000 ( 14610 PWs)   bands (ev):

   -15.0788 -15.0269  -9.0013  -8.5697  -5.8792  -5.3823  -5.3045  -4.9432
    -3.8828  -0.9497   0.5474   1.0841   1.5110   2.6471   4.0905   5.3262
     5.4464   5.7002   6.0623   6.6630   6.7154   7.0168   7.4090   7.4488
     7.8364   7.9752   8.6047   8.8623   9.1895   9.3438

     occupation numbers 
     1.0000   1.0000   1.0000   1.0000   1.0000   1.0000   1.0000   1.0000
     1.0000   0.0000   0.0000   0.0000   0.0000   0.0000   0.0000   0.0000
     0.0000   0.0000   0.0000   0.0000   0.0000   0.0000   0.0000   0.0000
     0.0000   0.0000   0.0000   0.0000   0.0000   0.0000

          k =-0.0111-0.9791 0.0000 ( 14600 PWs)   bands (ev):

   -15.0779 -15.0261  -9.0183  -8.5877  -5.8628  -5.3431  -5.2532  -4.9465
    -3.9003  -0.9851   0.4731   1.0635   1.4661   2.7249   4.0563   5.4318
     5.5231   5.6544   5.9797   6.6465   6.7171   7.0553   7.3226   7.5443
     7.7703   7.8384   8.6839   8.9445   9.1862   9.3064

     occupation numbers 
     1.0000   1.0000   1.0000   1.0000   1.0000   1.0000   1.0000   1.0000
     1.0000   0.0000   0.0000   0.0000   0.0000   0.0000   0.0000   0.0000
     0.0000   0.0000   0.0000   0.0000   0.0000   0.0000   0.0000   0.0000
     0.0000   0.0000   0.0000   0.0000   0.0000   0.0000

          k =-0.5777 0.0000 0.0000 ( 14602 PWs)   bands (ev):

   -15.0776 -15.0258  -9.0241  -8.5938  -5.8574  -5.3294  -5.2353  -4.9479
    -3.9063  -0.9974   0.4478   1.0567   1.4512   2.7525   4.0441   5.4771
     5.5479   5.6375   5.9480   6.6169   6.7409   7.0671   7.2920   7.6182
     7.7438   7.7508   8.7199   8.9848   9.1581   9.2745

     occupation numbers 
     1.0000   1.0000   1.0000   1.0000   1.0000   1.0000   1.0000   1.0000
     1.0000   0.0000   0.0000   0.0000   0.0000   0.0000   0.0000   0.0000
     0.0000   0.0000   0.0000   0.0000   0.0000   0.0000   0.0000   0.0000
     0.0000   0.0000   0.0000   0.0000   0.0000   0.0000

     the Fermi energy is    -1.6326 ev
     (compare with:    -3.1169 eV, computed in scf)

     Writing all to output data dir ./work/Al2S2.save/
 
     init_run     :      4.93s CPU      5.07s WALL (       1 calls)
     electrons    :   2106.45s CPU   2423.37s WALL (       1 calls)

     Called by init_run:
     wfcinit      :      0.00s CPU      0.00s WALL (       1 calls)
     wfcinit:atom :      0.26s CPU      0.32s WALL (    1354 calls)
     wfcinit:wfcr :     37.48s CPU     45.04s WALL (    1354 calls)
     potinit      :      4.41s CPU      4.47s WALL (       1 calls)
     hinit0       :      0.21s CPU      0.23s WALL (       1 calls)

     Called by electrons:
     c_bands      :   2106.40s CPU   2423.31s WALL (       1 calls)
     v_of_rho     :      4.33s CPU      4.38s WALL (       1 calls)
     v_h          :      0.00s CPU      0.00s WALL (       1 calls)
     v_xc         :      4.33s CPU      4.37s WALL (       1 calls)
     newd         :      0.09s CPU      0.13s WALL (       1 calls)
     PAW_pot      :      0.07s CPU      0.08s WALL (       1 calls)
     vdW_kernel   :      4.22s CPU      4.23s WALL (       1 calls)

     Called by c_bands:
     init_us_2    :      0.88s CPU      1.10s WALL (    1354 calls)
     init_us_2:cp :      0.88s CPU      1.10s WALL (    1354 calls)
     cegterg      :   2058.01s CPU   2366.62s WALL (    5677 calls)

     Called by sum_band:

     Called by *egterg:
     cdiaghg      :     98.11s CPU    102.75s WALL (  103528 calls)
     cegterg:over :    133.52s CPU    143.08s WALL (  102174 calls)
     cegterg:upda :     85.17s CPU     86.64s WALL (  102174 calls)
     cegterg:last :    256.38s CPU    258.18s WALL (   59403 calls)
     h_psi        :   1374.89s CPU   1668.75s WALL (  109205 calls)
     s_psi        :    101.44s CPU    105.09s WALL (  109205 calls)
     g_psi        :      5.93s CPU      6.02s WALL (  102174 calls)

     Called by h_psi:
     h_psi:calbec :     99.29s CPU    118.87s WALL (  109205 calls)
     vloc_psi     :   1114.90s CPU   1376.46s WALL (  109205 calls)
     add_vuspsi   :    145.77s CPU    158.24s WALL (  109205 calls)

     General routines
     calbec       :     99.00s CPU    118.58s WALL (  109205 calls)
     fft          :      0.06s CPU      0.07s WALL (      62 calls)
     fftw         :   1031.24s CPU   1277.18s WALL ( 3366022 calls)
     davcio       :      0.83s CPU      1.18s WALL (    2708 calls)
 
     Parallel routines

     PAW routines
     PAW_pot      :      0.07s CPU      0.08s WALL (       1 calls)
 
     PWSCF        :  35m14.00s CPU  40m37.85s WALL

 
   This run was terminated on:  13:39:44  22Jun2023            

=------------------------------------------------------------------------------=
   JOB DONE.
=------------------------------------------------------------------------------=
