
     Program BANDS v.7.1 starts on  7Mar2023 at 13:39:17 

     This program is part of the open-source Quantum ESPRESSO suite
     for quantum simulation of materials; please cite
         "P. Giannozzi et al., J. Phys.:Condens. Matter 21 395502 (2009);
         "P. Giannozzi et al., J. Phys.:Condens. Matter 29 465901 (2017);
         "P. Giannozzi et al., J. Chem. Phys. 152 154105 (2020);
          URL http://www.quantum-espresso.org", 
     in publications or presentations arising from this work. More details at
     http://www.quantum-espresso.org/quote

     Parallel version (MPI), running on    22 processors

     MPI processes distributed on     1 nodes
     R & G space division:  proc/nbgrp/npool/nimage =      22
     96588 MiB available memory on the printing compute node when the environment starts
 

     Reading xml data from directory:

     ./work/Al2SO.save/
     Message from routine volume:
     axis vectors are left-handed
     file Al.pbe-n-kjpaw_psl.1.0.0.UPF: wavefunction(s)  3S 3P renormalized
     file O.pbe-n-kjpaw_psl.1.0.0.UPF: wavefunction(s)  2S 2P renormalized
     file S.pbe-n-kjpaw_psl.1.0.0.UPF: wavefunction(s)  3S 3P renormalized

     IMPORTANT: XC functional enforced from input :
     Exchange-correlation= PBE
                           (   1   4   3   4   0   0   0)
     Any further DFT definition will be discarded
     Please, verify this is what you really want

 
     Parallelization info
     --------------------
     sticks:   dense  smooth     PW     G-vecs:    dense   smooth      PW
     Min          28      28      8                 2675     2675     422
     Max          29      29      9                 2682     2682     437
     Sum         637     637    187                58931    58931    9503
 
     Using Slab Decomposition
 

     Check: negative core charge=   -0.000004
     Reading collected, re-writing distributed wavefunctions
     high-symmetry point:  0.0000 0.0000 0.0000   x coordinate   0.0000
     high-symmetry point:  0.5774-0.3333-0.0001   x coordinate   0.6667
     high-symmetry point:  0.5774 0.0000-0.0001   x coordinate   1.0000
     high-symmetry point:  0.0000 0.0000 0.0000   x coordinate   1.5773

     Plottable bands (eV) written to file AB.bands.gnu
     Bands written to file AB.bands

 **************************************************************************

                    xk=(   0.00000,   0.00000,   0.00000  )

     point group C_s (m)    
     there are  2 classes
     the character table:

       E     s    
A'     1.00  1.00
A''    1.00 -1.00

     the symmetry operations in each class and the name of the first element:

     E        1
                                                                 
     s        2
                                                                 

     Band symmetry, C_s (m)     point group:

     e(  1 -  1) =    -14.51602  eV     1   --> A'             
     e(  2 -  2) =    -14.26217  eV     1   --> A'             
     e(  3 -  3) =     -9.05001  eV     1   --> A'             
     e(  4 -  4) =     -8.75769  eV     1   --> A'             
     e(  5 -  5) =     -1.48520  eV     1   --> A'             
     e(  6 -  6) =     -1.06555  eV     1   --> A'             
     e(  7 -  7) =      0.33525  eV     1   --> A'             
     e(  8 -  8) =      0.53275  eV     1   --> A'             
     e(  9 -  9) =      0.53332  eV     1   --> A''            
     e( 10 - 10) =      0.78651  eV     1   --> A'             
     e( 11 - 11) =      0.78694  eV     1   --> A''            
     e( 12 - 12) =      1.23270  eV     1   --> A'             
     e( 13 - 13) =      2.91660  eV     1   --> A'             
     e( 14 - 14) =      4.03467  eV     1   --> A'             
     e( 15 - 15) =      4.79211  eV     1   --> A''            
     e( 16 - 16) =      4.79394  eV     1   --> A'             
     e( 17 - 17) =      5.08489  eV     1   --> A''            
     e( 18 - 18) =      5.08679  eV     1   --> A'             
     e( 19 - 19) =      6.26121  eV     1   --> A'             
     e( 20 - 20) =      7.36307  eV     1   --> A'             
     e( 21 - 21) =     10.31622  eV     1   --> A'             
     e( 22 - 22) =     11.10679  eV     1   --> A'             
     e( 23 - 23) =     11.43770  eV     1   --> A'             
     e( 24 - 24) =     12.23468  eV     1   --> A'             
     e( 25 - 25) =     12.30602  eV     1   --> A'             
     e( 26 - 26) =     12.30612  eV     1   --> A''            
     e( 27 - 27) =     12.58958  eV     1   --> A'             
     e( 28 - 28) =     12.58973  eV     1   --> A''            
     e( 29 - 29) =     13.42821  eV     1   --> A'             
     e( 30 - 30) =     13.87194  eV     1   --> A''            
     e( 31 - 31) =     13.87406  eV     1   --> A'             
     e( 32 - 32) =     14.13373  eV     1   --> A''            
     e( 33 - 33) =     14.13561  eV     1   --> A'             
     e( 34 - 34) =     15.42459  eV     1   --> A'             
     e( 35 - 35) =     15.67260  eV     1   --> A''            
     e( 36 - 36) =     15.67411  eV     1   --> A'             
     e( 37 - 37) =     15.97991  eV     1   --> A''            
     e( 38 - 38) =     15.98148  eV     1   --> A'             
     e( 39 - 39) =     16.56748  eV     1   --> A'             
     e( 40 - 40) =     17.06647  eV     1   --> A'             
     e( 41 - 41) =     17.87428  eV     1   --> A'             
     e( 42 - 42) =     17.87656  eV     1   --> A''            
     e( 43 - 43) =     18.15085  eV     1   --> A'             
     e( 44 - 44) =     18.15304  eV     1   --> A''            
     e( 45 - 45) =     19.26607  eV     1   --> A'             
     e( 46 - 46) =     19.55652  eV     1   --> A'             
     e( 47 - 47) =     19.75824  eV     1   --> A'             
     e( 48 - 48) =     20.19067  eV     1   --> A''            
     e( 49 - 49) =     20.19652  eV     1   --> A'             
     e( 50 - 50) =     20.50562  eV     1   --> A''            
     e( 51 - 51) =     20.51126  eV     1   --> A'             
     e( 52 - 52) =     20.57126  eV     1   --> A'             
     e( 53 - 53) =     21.54286  eV     1   --> A'             
     e( 54 - 54) =     21.68965  eV     1   --> A'             
     e( 55 - 55) =     22.36117  eV     1   --> A'             
     e( 56 - 56) =     22.79351  eV     1   --> A'             
     e( 57 - 57) =     22.79512  eV     1   --> A''            
     e( 58 - 58) =     23.08314  eV     1   --> A'             
     e( 59 - 59) =     23.08681  eV     1   --> A''            
     e( 60 - 60) =     23.40843  eV     1   --> A'             
     e( 61 - 61) =     24.64504  eV     1   --> A''            
     e( 62 - 62) =     24.65131  eV     1   --> A'             
     e( 63 - 63) =     24.76082  eV     1   --> A'             
     e( 64 - 64) =     24.95940  eV     1   --> A''            
     e( 65 - 65) =     24.96172  eV     1   --> A'             
     e( 66 - 66) =     26.50961  eV     1   --> A'             
     e( 67 - 67) =     26.62015  eV     1   --> A''            
     e( 68 - 68) =     26.62097  eV     1   --> A'             
     e( 69 - 69) =     27.20822  eV     1   --> A'             
     e( 70 - 70) =     27.55936  eV     1   --> A''            
     e( 71 - 71) =     27.56105  eV     1   --> A'             
     e( 72 - 72) =     28.06524  eV     1   --> A'             

 **************************************************************************

 **************************************************************************

                    xk=(   0.01925,  -0.01111,  -0.00000  )

     point group C_1 (1)    
     there are  1 classes
     the character table:

       E    
A      1.00

     the symmetry operations in each class and the name of the first element:

     E        1
                                                                 

     Band symmetry, C_1 (1)     point group:

     e(  1 -  1) =    -14.51423  eV     1   --> A              
     e(  2 -  2) =    -14.26037  eV     1   --> A              
     e(  3 -  3) =     -9.04519  eV     1   --> A              
     e(  4 -  4) =     -8.75287  eV     1   --> A              
     e(  5 -  5) =     -1.48074  eV     1   --> A              
     e(  6 -  6) =     -1.06222  eV     1   --> A              
     e(  7 -  7) =      0.33869  eV     1   --> A              
     e(  8 -  8) =      0.51762  eV     1   --> A              
     e(  9 -  9) =      0.53110  eV     1   --> A              
     e( 10 - 10) =      0.77031  eV     1   --> A              
     e( 11 - 11) =      0.78475  eV     1   --> A              
     e( 12 - 12) =      1.23779  eV     1   --> A              
     e( 13 - 13) =      2.92790  eV     1   --> A              
     e( 14 - 14) =      4.04074  eV     1   --> A              
     e( 15 - 15) =      4.75969  eV     1   --> A              
     e( 16 - 16) =      4.78511  eV     1   --> A              
     e( 17 - 17) =      5.05225  eV     1   --> A              
     e( 18 - 18) =      5.07788  eV     1   --> A              
     e( 19 - 19) =      6.27574  eV     1   --> A              
     e( 20 - 20) =      7.37530  eV     1   --> A              
     e( 21 - 21) =     10.31762  eV     1   --> A              
     e( 22 - 22) =     11.13422  eV     1   --> A              
     e( 23 - 23) =     11.46409  eV     1   --> A              
     e( 24 - 24) =     12.19216  eV     1   --> A              
     e( 25 - 25) =     12.31226  eV     1   --> A              
     e( 26 - 26) =     12.31886  eV     1   --> A              
     e( 27 - 27) =     12.57076  eV     1   --> A              
     e( 28 - 28) =     12.60180  eV     1   --> A              
     e( 29 - 29) =     13.42276  eV     1   --> A              
     e( 30 - 30) =     13.84253  eV     1   --> A              
     e( 31 - 31) =     13.87787  eV     1   --> A              
     e( 32 - 32) =     14.10129  eV     1   --> A              
     e( 33 - 33) =     14.14004  eV     1   --> A              
     e( 34 - 34) =     15.31578  eV     1   --> A              
     e( 35 - 35) =     15.65598  eV     1   --> A              
     e( 36 - 36) =     15.67999  eV     1   --> A              
     e( 37 - 37) =     15.97136  eV     1   --> A              
     e( 38 - 38) =     15.99469  eV     1   --> A              
     e( 39 - 39) =     16.61282  eV     1   --> A              
     e( 40 - 40) =     17.10480  eV     1   --> A              
     e( 41 - 41) =     17.85308  eV     1   --> A              
     e( 42 - 42) =     17.88239  eV     1   --> A              
     e( 43 - 43) =     18.14024  eV     1   --> A              
     e( 44 - 44) =     18.17228  eV     1   --> A              
     e( 45 - 45) =     19.30228  eV     1   --> A              
     e( 46 - 46) =     19.59240  eV     1   --> A              
     e( 47 - 47) =     19.79661  eV     1   --> A              
     e( 48 - 48) =     20.16228  eV     1   --> A              
     e( 49 - 49) =     20.18820  eV     1   --> A              
     e( 50 - 50) =     20.48326  eV     1   --> A              
     e( 51 - 51) =     20.51144  eV     1   --> A              
     e( 52 - 52) =     20.60691  eV     1   --> A              
     e( 53 - 53) =     21.57525  eV     1   --> A              
     e( 54 - 54) =     21.73092  eV     1   --> A              
     e( 55 - 55) =     22.36734  eV     1   --> A              
     e( 56 - 56) =     22.75216  eV     1   --> A              
     e( 57 - 57) =     22.79785  eV     1   --> A              
     e( 58 - 58) =     23.01713  eV     1   --> A              
     e( 59 - 59) =     23.10128  eV     1   --> A              
     e( 60 - 60) =     23.52276  eV     1   --> A              
     e( 61 - 61) =     24.59829  eV     1   --> A              
     e( 62 - 62) =     24.61771  eV     1   --> A              
     e( 63 - 63) =     24.75134  eV     1   --> A              
     e( 64 - 64) =     24.97462  eV     1   --> A              
     e( 65 - 65) =     25.04096  eV     1   --> A              
     e( 66 - 66) =     26.50025  eV     1   --> A              
     e( 67 - 67) =     26.61248  eV     1   --> A              
     e( 68 - 68) =     26.64398  eV     1   --> A              
     e( 69 - 69) =     27.22601  eV     1   --> A              
     e( 70 - 70) =     27.54536  eV     1   --> A              
     e( 71 - 71) =     27.57430  eV     1   --> A              
     e( 72 - 72) =     28.11102  eV     1   --> A              

 **************************************************************************

 **************************************************************************

                    xk=(   0.03849,  -0.02222,  -0.00001  )

     Band symmetry, C_1 (1)     point group:

     e(  1 -  1) =    -14.50885  eV     1   --> A              
     e(  2 -  2) =    -14.25498  eV     1   --> A              
     e(  3 -  3) =     -9.03076  eV     1   --> A              
     e(  4 -  4) =     -8.73841  eV     1   --> A              
     e(  5 -  5) =     -1.46747  eV     1   --> A              
     e(  6 -  6) =     -1.05242  eV     1   --> A              
     e(  7 -  7) =      0.34834  eV     1   --> A              
     e(  8 -  8) =      0.47360  eV     1   --> A              
     e(  9 -  9) =      0.52481  eV     1   --> A              
     e( 10 - 10) =      0.72400  eV     1   --> A              
     e( 11 - 11) =      0.77845  eV     1   --> A              
     e( 12 - 12) =      1.25183  eV     1   --> A              
     e( 13 - 13) =      2.96053  eV     1   --> A              
     e( 14 - 14) =      4.05817  eV     1   --> A              
     e( 15 - 15) =      4.66154  eV     1   --> A              
     e( 16 - 16) =      4.76256  eV     1   --> A              
     e( 17 - 17) =      4.95352  eV     1   --> A              
     e( 18 - 18) =      5.05527  eV     1   --> A              
     e( 19 - 19) =      6.31838  eV     1   --> A              
     e( 20 - 20) =      7.41152  eV     1   --> A              
     e( 21 - 21) =     10.32063  eV     1   --> A              
     e( 22 - 22) =     11.21202  eV     1   --> A              
     e( 23 - 23) =     11.53851  eV     1   --> A              
     e( 24 - 24) =     12.09490  eV     1   --> A              
     e( 25 - 25) =     12.29672  eV     1   --> A              
     e( 26 - 26) =     12.35607  eV     1   --> A              
     e( 27 - 27) =     12.52491  eV     1   --> A              
     e( 28 - 28) =     12.63842  eV     1   --> A              
     e( 29 - 29) =     13.40076  eV     1   --> A              
     e( 30 - 30) =     13.75712  eV     1   --> A              
     e( 31 - 31) =     13.89365  eV     1   --> A              
     e( 32 - 32) =     14.01263  eV     1   --> A              
     e( 33 - 33) =     14.15740  eV     1   --> A              
     e( 34 - 34) =     15.10341  eV     1   --> A              
     e( 35 - 35) =     15.55725  eV     1   --> A              
     e( 36 - 36) =     15.62872  eV     1   --> A              
     e( 37 - 37) =     15.94087  eV     1   --> A              
     e( 38 - 38) =     16.07644  eV     1   --> A              
     e( 39 - 39) =     16.72857  eV     1   --> A              
     e( 40 - 40) =     17.18537  eV     1   --> A              
     e( 41 - 41) =     17.80968  eV     1   --> A              
     e( 42 - 42) =     17.88683  eV     1   --> A              
     e( 43 - 43) =     18.13783  eV     1   --> A              
     e( 44 - 44) =     18.21924  eV     1   --> A              
     e( 45 - 45) =     19.40326  eV     1   --> A              
     e( 46 - 46) =     19.68896  eV     1   --> A              
     e( 47 - 47) =     19.89512  eV     1   --> A              
     e( 48 - 48) =     20.09767  eV     1   --> A              
     e( 49 - 49) =     20.17418  eV     1   --> A              
     e( 50 - 50) =     20.41890  eV     1   --> A              
     e( 51 - 51) =     20.51784  eV     1   --> A              
     e( 52 - 52) =     20.70215  eV     1   --> A              
     e( 53 - 53) =     21.66356  eV     1   --> A              
     e( 54 - 54) =     21.84668  eV     1   --> A              
     e( 55 - 55) =     22.36681  eV     1   --> A              
     e( 56 - 56) =     22.67399  eV     1   --> A              
     e( 57 - 57) =     22.76639  eV     1   --> A              
     e( 58 - 58) =     22.98166  eV     1   --> A              
     e( 59 - 59) =     23.13376  eV     1   --> A              
     e( 60 - 60) =     23.73419  eV     1   --> A              
     e( 61 - 61) =     24.49666  eV     1   --> A              
     e( 62 - 62) =     24.54253  eV     1   --> A              
     e( 63 - 63) =     24.74562  eV     1   --> A              
     e( 64 - 64) =     24.99289  eV     1   --> A              
     e( 65 - 65) =     25.22242  eV     1   --> A              
     e( 66 - 66) =     26.43937  eV     1   --> A              
     e( 67 - 67) =     26.62215  eV     1   --> A              
     e( 68 - 68) =     26.72295  eV     1   --> A              
     e( 69 - 69) =     27.23648  eV     1   --> A              
     e( 70 - 70) =     27.55588  eV     1   --> A              
     e( 71 - 71) =     27.61493  eV     1   --> A              
     e( 72 - 72) =     28.18395  eV     1   --> A              

 **************************************************************************

 **************************************************************************

                    xk=(   0.05774,  -0.03333,  -0.00001  )

     Band symmetry, C_1 (1)     point group:

     e(  1 -  1) =    -14.49996  eV     1   --> A              
     e(  2 -  2) =    -14.24606  eV     1   --> A              
     e(  3 -  3) =     -9.00677  eV     1   --> A              
     e(  4 -  4) =     -8.71438  eV     1   --> A              
     e(  5 -  5) =     -1.44573  eV     1   --> A              
     e(  6 -  6) =     -1.03673  eV     1   --> A              
     e(  7 -  7) =      0.35667  eV     1   --> A              
     e(  8 -  8) =      0.41111  eV     1   --> A              
     e(  9 -  9) =      0.51426  eV     1   --> A              
     e( 10 - 10) =      0.65398  eV     1   --> A              
     e( 11 - 11) =      0.76789  eV     1   --> A              
     e( 12 - 12) =      1.27244  eV     1   --> A              
     e( 13 - 13) =      3.01104  eV     1   --> A              
     e( 14 - 14) =      4.08461  eV     1   --> A              
     e( 15 - 15) =      4.50738  eV     1   --> A              
     e( 16 - 16) =      4.72480  eV     1   --> A              
     e( 17 - 17) =      4.79903  eV     1   --> A              
     e( 18 - 18) =      5.01739  eV     1   --> A              
     e( 19 - 19) =      6.38692  eV     1   --> A              
     e( 20 - 20) =      7.47040  eV     1   --> A              
     e( 21 - 21) =     10.32254  eV     1   --> A              
     e( 22 - 22) =     11.32732  eV     1   --> A              
     e( 23 - 23) =     11.64491  eV     1   --> A              
     e( 24 - 24) =     11.96375  eV     1   --> A              
     e( 25 - 25) =     12.22824  eV     1   --> A              
     e( 26 - 26) =     12.41245  eV     1   --> A              
     e( 27 - 27) =     12.48403  eV     1   --> A              
     e( 28 - 28) =     12.69912  eV     1   --> A              
     e( 29 - 29) =     13.34579  eV     1   --> A              
     e( 30 - 30) =     13.63432  eV     1   --> A              
     e( 31 - 31) =     13.89756  eV     1   --> A              
     e( 32 - 32) =     13.92501  eV     1   --> A              
     e( 33 - 33) =     14.18639  eV     1   --> A              
     e( 34 - 34) =     14.86424  eV     1   --> A              
     e( 35 - 35) =     15.36829  eV     1   --> A              
     e( 36 - 36) =     15.55622  eV     1   --> A              
     e( 37 - 37) =     15.88579  eV     1   --> A              
     e( 38 - 38) =     16.17927  eV     1   --> A              
     e( 39 - 39) =     16.88082  eV     1   --> A              
     e( 40 - 40) =     17.24133  eV     1   --> A              
     e( 41 - 41) =     17.77178  eV     1   --> A              
     e( 42 - 42) =     17.87017  eV     1   --> A              
     e( 43 - 43) =     18.21054  eV     1   --> A              
     e( 44 - 44) =     18.27753  eV     1   --> A              
     e( 45 - 45) =     19.54589  eV     1   --> A              
     e( 46 - 46) =     19.82499  eV     1   --> A              
     e( 47 - 47) =     19.91679  eV     1   --> A              
     e( 48 - 48) =     20.10688  eV     1   --> A              
     e( 49 - 49) =     20.16980  eV     1   --> A              
     e( 50 - 50) =     20.36306  eV     1   --> A              
     e( 51 - 51) =     20.53827  eV     1   --> A              
     e( 52 - 52) =     20.83693  eV     1   --> A              
     e( 53 - 53) =     21.78884  eV     1   --> A              
     e( 54 - 54) =     22.00854  eV     1   --> A              
     e( 55 - 55) =     22.31369  eV     1   --> A              
     e( 56 - 56) =     22.62208  eV     1   --> A              
     e( 57 - 57) =     22.73024  eV     1   --> A              
     e( 58 - 58) =     23.03569  eV     1   --> A              
     e( 59 - 59) =     23.18785  eV     1   --> A              
     e( 60 - 60) =     23.94834  eV     1   --> A              
     e( 61 - 61) =     24.39539  eV     1   --> A              
     e( 62 - 62) =     24.47006  eV     1   --> A              
     e( 63 - 63) =     24.72781  eV     1   --> A              
     e( 64 - 64) =     24.99173  eV     1   --> A              
     e( 65 - 65) =     25.46506  eV     1   --> A              
     e( 66 - 66) =     26.34784  eV     1   --> A              
     e( 67 - 67) =     26.65218  eV     1   --> A              
     e( 68 - 68) =     26.84974  eV     1   --> A              
     e( 69 - 69) =     27.17764  eV     1   --> A              
     e( 70 - 70) =     27.65852  eV     1   --> A              
     e( 71 - 71) =     27.67655  eV     1   --> A              
     e( 72 - 72) =     28.08485  eV     1   --> A              

 **************************************************************************

 **************************************************************************

                    xk=(   0.07698,  -0.04444,  -0.00001  )

     Band symmetry, C_1 (1)     point group:

     e(  1 -  1) =    -14.48766  eV     1   --> A              
     e(  2 -  2) =    -14.23373  eV     1   --> A              
     e(  3 -  3) =     -8.97334  eV     1   --> A              
     e(  4 -  4) =     -8.68088  eV     1   --> A              
     e(  5 -  5) =     -1.41616  eV     1   --> A              
     e(  6 -  6) =     -1.01621  eV     1   --> A              
     e(  7 -  7) =      0.29667  eV     1   --> A              
     e(  8 -  8) =      0.39997  eV     1   --> A              
     e(  9 -  9) =      0.49934  eV     1   --> A              
     e( 10 - 10) =      0.56903  eV     1   --> A              
     e( 11 - 11) =      0.75295  eV     1   --> A              
     e( 12 - 12) =      1.29775  eV     1   --> A              
     e( 13 - 13) =      3.07445  eV     1   --> A              
     e( 14 - 14) =      4.11523  eV     1   --> A              
     e( 15 - 15) =      4.30925  eV     1   --> A              
     e( 16 - 16) =      4.60152  eV     1   --> A              
     e( 17 - 17) =      4.67156  eV     1   --> A              
     e( 18 - 18) =      4.96392  eV     1   --> A              
     e( 19 - 19) =      6.47902  eV     1   --> A              
     e( 20 - 20) =      7.55008  eV     1   --> A              
     e( 21 - 21) =     10.32068  eV     1   --> A              
     e( 22 - 22) =     11.46097  eV     1   --> A              
     e( 23 - 23) =     11.71470  eV     1   --> A              
     e( 24 - 24) =     11.85430  eV     1   --> A              
     e( 25 - 25) =     12.10488  eV     1   --> A              
     e( 26 - 26) =     12.42882  eV     1   --> A              
     e( 27 - 27) =     12.51477  eV     1   --> A              
     e( 28 - 28) =     12.77796  eV     1   --> A              
     e( 29 - 29) =     13.24246  eV     1   --> A              
     e( 30 - 30) =     13.48504  eV     1   --> A              
     e( 31 - 31) =     13.81413  eV     1   --> A              
     e( 32 - 32) =     13.95971  eV     1   --> A              
     e( 33 - 33) =     14.22866  eV     1   --> A              
     e( 34 - 34) =     14.63125  eV     1   --> A              
     e( 35 - 35) =     15.16046  eV     1   --> A              
     e( 36 - 36) =     15.45441  eV     1   --> A              
     e( 37 - 37) =     15.80359  eV     1   --> A              
     e( 38 - 38) =     16.25948  eV     1   --> A              
     e( 39 - 39) =     17.01823  eV     1   --> A              
     e( 40 - 40) =     17.26844  eV     1   --> A              
     e( 41 - 41) =     17.72145  eV     1   --> A              
     e( 42 - 42) =     17.86743  eV     1   --> A              
     e( 43 - 43) =     18.30316  eV     1   --> A              
     e( 44 - 44) =     18.40974  eV     1   --> A              
     e( 45 - 45) =     19.67387  eV     1   --> A              
     e( 46 - 46) =     19.85307  eV     1   --> A              
     e( 47 - 47) =     19.98556  eV     1   --> A              
     e( 48 - 48) =     20.04393  eV     1   --> A              
     e( 49 - 49) =     20.23469  eV     1   --> A              
     e( 50 - 50) =     20.39467  eV     1   --> A              
     e( 51 - 51) =     20.64454  eV     1   --> A              
     e( 52 - 52) =     21.00450  eV     1   --> A              
     e( 53 - 53) =     21.92151  eV     1   --> A              
     e( 54 - 54) =     22.15013  eV     1   --> A              
     e( 55 - 55) =     22.25272  eV     1   --> A              
     e( 56 - 56) =     22.57621  eV     1   --> A              
     e( 57 - 57) =     22.79619  eV     1   --> A              
     e( 58 - 58) =     23.09611  eV     1   --> A              
     e( 59 - 59) =     23.31672  eV     1   --> A              
     e( 60 - 60) =     24.06504  eV     1   --> A              
     e( 61 - 61) =     24.36991  eV     1   --> A              
     e( 62 - 62) =     24.42928  eV     1   --> A              
     e( 63 - 63) =     24.69131  eV     1   --> A              
     e( 64 - 64) =     24.98085  eV     1   --> A              
     e( 65 - 65) =     25.74788  eV     1   --> A              
     e( 66 - 66) =     26.26850  eV     1   --> A              
     e( 67 - 67) =     26.68702  eV     1   --> A              
     e( 68 - 68) =     26.99878  eV     1   --> A              
     e( 69 - 69) =     27.08022  eV     1   --> A              
     e( 70 - 70) =     27.73812  eV     1   --> A              
     e( 71 - 71) =     27.77815  eV     1   --> A              
     e( 72 - 72) =     27.95143  eV     1   --> A              

 **************************************************************************

 **************************************************************************

                    xk=(   0.09623,  -0.05555,  -0.00001  )

     Band symmetry, C_1 (1)     point group:

     e(  1 -  1) =    -14.47208  eV     1   --> A              
     e(  2 -  2) =    -14.21810  eV     1   --> A              
     e(  3 -  3) =     -8.93061  eV     1   --> A              
     e(  4 -  4) =     -8.63808  eV     1   --> A              
     e(  5 -  5) =     -1.37985  eV     1   --> A              
     e(  6 -  6) =     -0.99254  eV     1   --> A              
     e(  7 -  7) =      0.19006  eV     1   --> A              
     e(  8 -  8) =      0.40775  eV     1   --> A              
     e(  9 -  9) =      0.47990  eV     1   --> A              
     e( 10 - 10) =      0.49241  eV     1   --> A              
     e( 11 - 11) =      0.73350  eV     1   --> A              
     e( 12 - 12) =      1.32674  eV     1   --> A              
     e( 13 - 13) =      3.14420  eV     1   --> A              
     e( 14 - 14) =      4.06904  eV     1   --> A              
     e( 15 - 15) =      4.14870  eV     1   --> A              
     e( 16 - 16) =      4.38243  eV     1   --> A              
     e( 17 - 17) =      4.60256  eV     1   --> A              
     e( 18 - 18) =      4.89455  eV     1   --> A              
     e( 19 - 19) =      6.59260  eV     1   --> A              
     e( 20 - 20) =      7.64833  eV     1   --> A              
     e( 21 - 21) =     10.31296  eV     1   --> A              
     e( 22 - 22) =     11.57030  eV     1   --> A              
     e( 23 - 23) =     11.59070  eV     1   --> A              
     e( 24 - 24) =     11.88260  eV     1   --> A              
     e( 25 - 25) =     11.99699  eV     1   --> A              
     e( 26 - 26) =     12.40276  eV     1   --> A              
     e( 27 - 27) =     12.58807  eV     1   --> A              
     e( 28 - 28) =     12.85467  eV     1   --> A              
     e( 29 - 29) =     13.10240  eV     1   --> A              
     e( 30 - 30) =     13.31255  eV     1   --> A              
     e( 31 - 31) =     13.77928  eV     1   --> A              
     e( 32 - 32) =     14.01340  eV     1   --> A              
     e( 33 - 33) =     14.29040  eV     1   --> A              
     e( 34 - 34) =     14.43466  eV     1   --> A              
     e( 35 - 35) =     14.97007  eV     1   --> A              
     e( 36 - 36) =     15.32536  eV     1   --> A              
     e( 37 - 37) =     15.69677  eV     1   --> A              
     e( 38 - 38) =     16.30835  eV     1   --> A              
     e( 39 - 39) =     17.04241  eV     1   --> A              
     e( 40 - 40) =     17.36835  eV     1   --> A              
     e( 41 - 41) =     17.66427  eV     1   --> A              
     e( 42 - 42) =     17.87148  eV     1   --> A              
     e( 43 - 43) =     18.33311  eV     1   --> A              
     e( 44 - 44) =     18.66055  eV     1   --> A              
     e( 45 - 45) =     19.66127  eV     1   --> A              
     e( 46 - 46) =     19.89991  eV     1   --> A              
     e( 47 - 47) =     19.94071  eV     1   --> A              
     e( 48 - 48) =     20.13803  eV     1   --> A              
     e( 49 - 49) =     20.27512  eV     1   --> A              
     e( 50 - 50) =     20.44453  eV     1   --> A              
     e( 51 - 51) =     20.89632  eV     1   --> A              
     e( 52 - 52) =     21.21573  eV     1   --> A              
     e( 53 - 53) =     22.01564  eV     1   --> A              
     e( 54 - 54) =     22.14205  eV     1   --> A              
     e( 55 - 55) =     22.33028  eV     1   --> A              
     e( 56 - 56) =     22.59726  eV     1   --> A              
     e( 57 - 57) =     22.89511  eV     1   --> A              
     e( 58 - 58) =     23.19345  eV     1   --> A              
     e( 59 - 59) =     23.52894  eV     1   --> A              
     e( 60 - 60) =     24.01794  eV     1   --> A              
     e( 61 - 61) =     24.37544  eV     1   --> A              
     e( 62 - 62) =     24.48173  eV     1   --> A              
     e( 63 - 63) =     24.65242  eV     1   --> A              
     e( 64 - 64) =     25.01713  eV     1   --> A              
     e( 65 - 65) =     26.03844  eV     1   --> A              
     e( 66 - 66) =     26.22980  eV     1   --> A              
     e( 67 - 67) =     26.71541  eV     1   --> A              
     e( 68 - 68) =     26.97139  eV     1   --> A              
     e( 69 - 69) =     27.14830  eV     1   --> A              
     e( 70 - 70) =     27.65269  eV     1   --> A              
     e( 71 - 71) =     27.85900  eV     1   --> A              
     e( 72 - 72) =     27.99698  eV     1   --> A              

 **************************************************************************

 **************************************************************************

                    xk=(   0.11547,  -0.06666,  -0.00002  )

     Band symmetry, C_1 (1)     point group:

     e(  1 -  1) =    -14.45341  eV     1   --> A              
     e(  2 -  2) =    -14.19938  eV     1   --> A              
     e(  3 -  3) =     -8.87879  eV     1   --> A              
     e(  4 -  4) =     -8.58616  eV     1   --> A              
     e(  5 -  5) =     -1.33860  eV     1   --> A              
     e(  6 -  6) =     -0.96819  eV     1   --> A              
     e(  7 -  7) =      0.07103  eV     1   --> A              
     e(  8 -  8) =      0.34203  eV     1   --> A              
     e(  9 -  9) =      0.45574  eV     1   --> A              
     e( 10 - 10) =      0.49529  eV     1   --> A              
     e( 11 - 11) =      0.70938  eV     1   --> A              
     e( 12 - 12) =      1.35873  eV     1   --> A              
     e( 13 - 13) =      3.20912  eV     1   --> A              
     e( 14 - 14) =      3.82455  eV     1   --> A              
     e( 15 - 15) =      4.05911  eV     1   --> A              
     e( 16 - 16) =      4.25521  eV     1   --> A              
     e( 17 - 17) =      4.51774  eV     1   --> A              
     e( 18 - 18) =      4.80899  eV     1   --> A              
     e( 19 - 19) =      6.72564  eV     1   --> A              
     e( 20 - 20) =      7.76264  eV     1   --> A              
     e( 21 - 21) =     10.29752  eV     1   --> A              
     e( 22 - 22) =     11.36903  eV     1   --> A              
     e( 23 - 23) =     11.64358  eV     1   --> A              
     e( 24 - 24) =     11.78777  eV     1   --> A              
     e( 25 - 25) =     12.06718  eV     1   --> A              
     e( 26 - 26) =     12.37329  eV     1   --> A              
     e( 27 - 27) =     12.61461  eV     1   --> A              
     e( 28 - 28) =     12.89162  eV     1   --> A              
     e( 29 - 29) =     12.95567  eV     1   --> A              
     e( 30 - 30) =     13.13277  eV     1   --> A              
     e( 31 - 31) =     13.79685  eV     1   --> A              
     e( 32 - 32) =     14.09481  eV     1   --> A              
     e( 33 - 33) =     14.30334  eV     1   --> A              
     e( 34 - 34) =     14.38596  eV     1   --> A              
     e( 35 - 35) =     14.81729  eV     1   --> A              
     e( 36 - 36) =     15.17844  eV     1   --> A              
     e( 37 - 37) =     15.57853  eV     1   --> A              
     e( 38 - 38) =     16.33089  eV     1   --> A              
     e( 39 - 39) =     16.98561  eV     1   --> A              
     e( 40 - 40) =     17.49339  eV     1   --> A              
     e( 41 - 41) =     17.64045  eV     1   --> A              
     e( 42 - 42) =     17.85535  eV     1   --> A              
     e( 43 - 43) =     18.33468  eV     1   --> A              
     e( 44 - 44) =     18.94791  eV     1   --> A              
     e( 45 - 45) =     19.58843  eV     1   --> A              
     e( 46 - 46) =     19.84780  eV     1   --> A              
     e( 47 - 47) =     19.98007  eV     1   --> A              
     e( 48 - 48) =     20.24223  eV     1   --> A              
     e( 49 - 49) =     20.32506  eV     1   --> A              
     e( 50 - 50) =     20.51472  eV     1   --> A              
     e( 51 - 51) =     21.20019  eV     1   --> A              
     e( 52 - 52) =     21.49141  eV     1   --> A              
     e( 53 - 53) =     22.06973  eV     1   --> A              
     e( 54 - 54) =     22.12888  eV     1   --> A              
     e( 55 - 55) =     22.40957  eV     1   --> A              
     e( 56 - 56) =     22.69068  eV     1   --> A              
     e( 57 - 57) =     23.00196  eV     1   --> A              
     e( 58 - 58) =     23.37150  eV     1   --> A              
     e( 59 - 59) =     23.74204  eV     1   --> A              
     e( 60 - 60) =     23.99526  eV     1   --> A              
     e( 61 - 61) =     24.31056  eV     1   --> A              
     e( 62 - 62) =     24.55648  eV     1   --> A              
     e( 63 - 63) =     24.61673  eV     1   --> A              
     e( 64 - 64) =     25.16974  eV     1   --> A              
     e( 65 - 65) =     26.16304  eV     1   --> A              
     e( 66 - 66) =     26.37104  eV     1   --> A              
     e( 67 - 67) =     26.72302  eV     1   --> A              
     e( 68 - 68) =     26.89367  eV     1   --> A              
     e( 69 - 69) =     27.23013  eV     1   --> A              
     e( 70 - 70) =     27.56731  eV     1   --> A              
     e( 71 - 71) =     27.94688  eV     1   --> A              
     e( 72 - 72) =     28.04086  eV     1   --> A              

 **************************************************************************

 **************************************************************************

                    xk=(   0.13472,  -0.07777,  -0.00002  )

     Band symmetry, C_1 (1)     point group:

     e(  1 -  1) =    -14.43187  eV     1   --> A              
     e(  2 -  2) =    -14.17778  eV     1   --> A              
     e(  3 -  3) =     -8.81813  eV     1   --> A              
     e(  4 -  4) =     -8.52539  eV     1   --> A              
     e(  5 -  5) =     -1.29545  eV     1   --> A              
     e(  6 -  6) =     -0.94659  eV     1   --> A              
     e(  7 -  7) =     -0.05212  eV     1   --> A              
     e(  8 -  8) =      0.24881  eV     1   --> A              
     e(  9 -  9) =      0.42670  eV     1   --> A              
     e( 10 - 10) =      0.53734  eV     1   --> A              
     e( 11 - 11) =      0.68050  eV     1   --> A              
     e( 12 - 12) =      1.39305  eV     1   --> A              
     e( 13 - 13) =      3.23514  eV     1   --> A              
     e( 14 - 14) =      3.58640  eV     1   --> A              
     e( 15 - 15) =      3.82878  eV     1   --> A              
     e( 16 - 16) =      4.27301  eV     1   --> A              
     e( 17 - 17) =      4.41793  eV     1   --> A              
     e( 18 - 18) =      4.70711  eV     1   --> A              
     e( 19 - 19) =      6.87608  eV     1   --> A              
     e( 20 - 20) =      7.89024  eV     1   --> A              
     e( 21 - 21) =     10.27194  eV     1   --> A              
     e( 22 - 22) =     11.15187  eV     1   --> A              
     e( 23 - 23) =     11.48149  eV     1   --> A              
     e( 24 - 24) =     11.83097  eV     1   --> A              
     e( 25 - 25) =     12.12316  eV     1   --> A              
     e( 26 - 26) =     12.36575  eV     1   --> A              
     e( 27 - 27) =     12.54523  eV     1   --> A              
     e( 28 - 28) =     12.80071  eV     1   --> A              
     e( 29 - 29) =     12.87322  eV     1   --> A              
     e( 30 - 30) =     12.97330  eV     1   --> A              
     e( 31 - 31) =     13.85739  eV     1   --> A              
     e( 32 - 32) =     14.16488  eV     1   --> A              
     e( 33 - 33) =     14.29488  eV     1   --> A              
     e( 34 - 34) =     14.52268  eV     1   --> A              
     e( 35 - 35) =     14.71277  eV     1   --> A              
     e( 36 - 36) =     15.03299  eV     1   --> A              
     e( 37 - 37) =     15.47875  eV     1   --> A              
     e( 38 - 38) =     16.33496  eV     1   --> A              
     e( 39 - 39) =     16.91077  eV     1   --> A              
     e( 40 - 40) =     17.50007  eV     1   --> A              
     e( 41 - 41) =     17.72345  eV     1   --> A              
     e( 42 - 42) =     17.81542  eV     1   --> A              
     e( 43 - 43) =     18.31119  eV     1   --> A              
     e( 44 - 44) =     19.20766  eV     1   --> A              
     e( 45 - 45) =     19.53739  eV     1   --> A              
     e( 46 - 46) =     19.80260  eV     1   --> A              
     e( 47 - 47) =     20.03259  eV     1   --> A              
     e( 48 - 48) =     20.30884  eV     1   --> A              
     e( 49 - 49) =     20.37826  eV     1   --> A              
     e( 50 - 50) =     20.58864  eV     1   --> A              
     e( 51 - 51) =     21.50413  eV     1   --> A              
     e( 52 - 52) =     21.82698  eV     1   --> A              
     e( 53 - 53) =     22.09064  eV     1   --> A              
     e( 54 - 54) =     22.19969  eV     1   --> A              
     e( 55 - 55) =     22.48335  eV     1   --> A              
     e( 56 - 56) =     22.80503  eV     1   --> A              
     e( 57 - 57) =     23.14568  eV     1   --> A              
     e( 58 - 58) =     23.54163  eV     1   --> A              
     e( 59 - 59) =     23.78020  eV     1   --> A              
     e( 60 - 60) =     24.21516  eV     1   --> A              
     e( 61 - 61) =     24.25795  eV     1   --> A              
     e( 62 - 62) =     24.54717  eV     1   --> A              
     e( 63 - 63) =     24.67174  eV     1   --> A              
     e( 64 - 64) =     25.39879  eV     1   --> A              
     e( 65 - 65) =     26.17448  eV     1   --> A              
     e( 66 - 66) =     26.53998  eV     1   --> A              
     e( 67 - 67) =     26.68734  eV     1   --> A              
     e( 68 - 68) =     26.92694  eV     1   --> A              
     e( 69 - 69) =     27.21046  eV     1   --> A              
     e( 70 - 70) =     27.59786  eV     1   --> A              
     e( 71 - 71) =     28.01289  eV     1   --> A              
     e( 72 - 72) =     28.13687  eV     1   --> A              

 **************************************************************************

 **************************************************************************

                    xk=(   0.15396,  -0.08888,  -0.00002  )

     Band symmetry, C_1 (1)     point group:

     e(  1 -  1) =    -14.40772  eV     1   --> A              
     e(  2 -  2) =    -14.15356  eV     1   --> A              
     e(  3 -  3) =     -8.74894  eV     1   --> A              
     e(  4 -  4) =     -8.45607  eV     1   --> A              
     e(  5 -  5) =     -1.25556  eV     1   --> A              
     e(  6 -  6) =     -0.93193  eV     1   --> A              
     e(  7 -  7) =     -0.17207  eV     1   --> A              
     e(  8 -  8) =      0.16481  eV     1   --> A              
     e(  9 -  9) =      0.39256  eV     1   --> A              
     e( 10 - 10) =      0.58926  eV     1   --> A              
     e( 11 - 11) =      0.64744  eV     1   --> A              
     e( 12 - 12) =      1.42863  eV     1   --> A              
     e( 13 - 13) =      3.12155  eV     1   --> A              
     e( 14 - 14) =      3.39439  eV     1   --> A              
     e( 15 - 15) =      3.65788  eV     1   --> A              
     e( 16 - 16) =      4.28045  eV     1   --> A              
     e( 17 - 17) =      4.33091  eV     1   --> A              
     e( 18 - 18) =      4.58900  eV     1   --> A              
     e( 19 - 19) =      7.04177  eV     1   --> A              
     e( 20 - 20) =      8.02809  eV     1   --> A              
     e( 21 - 21) =     10.23232  eV     1   --> A              
     e( 22 - 22) =     10.92798  eV     1   --> A              
     e( 23 - 23) =     11.27119  eV     1   --> A              
     e( 24 - 24) =     11.85146  eV     1   --> A              
     e( 25 - 25) =     12.12694  eV     1   --> A              
     e( 26 - 26) =     12.39338  eV     1   --> A              
     e( 27 - 27) =     12.40265  eV     1   --> A              
     e( 28 - 28) =     12.63811  eV     1   --> A              
     e( 29 - 29) =     12.76913  eV     1   --> A              
     e( 30 - 30) =     12.88585  eV     1   --> A              
     e( 31 - 31) =     13.93801  eV     1   --> A              
     e( 32 - 32) =     14.12815  eV     1   --> A              
     e( 33 - 33) =     14.43405  eV     1   --> A              
     e( 34 - 34) =     14.55632  eV     1   --> A              
     e( 35 - 35) =     14.77970  eV     1   --> A              
     e( 36 - 36) =     14.94325  eV     1   --> A              
     e( 37 - 37) =     15.44908  eV     1   --> A              
     e( 38 - 38) =     16.32716  eV     1   --> A              
     e( 39 - 39) =     16.83322  eV     1   --> A              
     e( 40 - 40) =     17.44402  eV     1   --> A              
     e( 41 - 41) =     17.74284  eV     1   --> A              
     e( 42 - 42) =     17.84493  eV     1   --> A              
     e( 43 - 43) =     18.27053  eV     1   --> A              
     e( 44 - 44) =     19.31174  eV     1   --> A              
     e( 45 - 45) =     19.58537  eV     1   --> A              
     e( 46 - 46) =     19.80784  eV     1   --> A              
     e( 47 - 47) =     20.07319  eV     1   --> A              
     e( 48 - 48) =     20.38473  eV     1   --> A              
     e( 49 - 49) =     20.44526  eV     1   --> A              
     e( 50 - 50) =     20.63521  eV     1   --> A              
     e( 51 - 51) =     21.73476  eV     1   --> A              
     e( 52 - 52) =     22.10199  eV     1   --> A              
     e( 53 - 53) =     22.23893  eV     1   --> A              
     e( 54 - 54) =     22.35438  eV     1   --> A              
     e( 55 - 55) =     22.59371  eV     1   --> A              
     e( 56 - 56) =     22.93411  eV     1   --> A              
     e( 57 - 57) =     23.29419  eV     1   --> A              
     e( 58 - 58) =     23.51700  eV     1   --> A              
     e( 59 - 59) =     23.93598  eV     1   --> A              
     e( 60 - 60) =     24.15247  eV     1   --> A              
     e( 61 - 61) =     24.54609  eV     1   --> A              
     e( 62 - 62) =     24.64108  eV     1   --> A              
     e( 63 - 63) =     24.77233  eV     1   --> A              
     e( 64 - 64) =     25.64303  eV     1   --> A              
     e( 65 - 65) =     26.19018  eV     1   --> A              
     e( 66 - 66) =     26.54577  eV     1   --> A              
     e( 67 - 67) =     26.62887  eV     1   --> A              
     e( 68 - 68) =     27.03680  eV     1   --> A              
     e( 69 - 69) =     27.24754  eV     1   --> A              
     e( 70 - 70) =     27.67012  eV     1   --> A              
     e( 71 - 71) =     28.12666  eV     1   --> A              
     e( 72 - 72) =     28.26972  eV     1   --> A              

 **************************************************************************

 **************************************************************************

                    xk=(   0.17321,  -0.09999,  -0.00003  )

     Band symmetry, C_1 (1)     point group:

     e(  1 -  1) =    -14.38124  eV     1   --> A              
     e(  2 -  2) =    -14.12700  eV     1   --> A              
     e(  3 -  3) =     -8.67162  eV     1   --> A              
     e(  4 -  4) =     -8.37859  eV     1   --> A              
     e(  5 -  5) =     -1.22732  eV     1   --> A              
     e(  6 -  6) =     -0.92846  eV     1   --> A              
     e(  7 -  7) =     -0.27987  eV     1   --> A              
     e(  8 -  8) =      0.10229  eV     1   --> A              
     e(  9 -  9) =      0.35311  eV     1   --> A              
     e( 10 - 10) =      0.60351  eV     1   --> A              
     e( 11 - 11) =      0.65382  eV     1   --> A              
     e( 12 - 12) =      1.46355  eV     1   --> A              
     e( 13 - 13) =      2.88043  eV     1   --> A              
     e( 14 - 14) =      3.15557  eV     1   --> A              
     e( 15 - 15) =      3.65536  eV     1   --> A              
     e( 16 - 16) =      4.15963  eV     1   --> A              
     e( 17 - 17) =      4.35757  eV     1   --> A              
     e( 18 - 18) =      4.45535  eV     1   --> A              
     e( 19 - 19) =      7.22056  eV     1   --> A              
     e( 20 - 20) =      8.17280  eV     1   --> A              
     e( 21 - 21) =     10.17173  eV     1   --> A              
     e( 22 - 22) =     10.70305  eV     1   --> A              
     e( 23 - 23) =     11.05737  eV     1   --> A              
     e( 24 - 24) =     11.78567  eV     1   --> A              
     e( 25 - 25) =     12.11780  eV     1   --> A              
     e( 26 - 26) =     12.20990  eV     1   --> A              
     e( 27 - 27) =     12.40265  eV     1   --> A              
     e( 28 - 28) =     12.49156  eV     1   --> A              
     e( 29 - 29) =     12.65751  eV     1   --> A              
     e( 30 - 30) =     12.86485  eV     1   --> A              
     e( 31 - 31) =     14.00211  eV     1   --> A              
     e( 32 - 32) =     14.06695  eV     1   --> A              
     e( 33 - 33) =     14.45558  eV     1   --> A              
     e( 34 - 34) =     14.47664  eV     1   --> A              
     e( 35 - 35) =     14.94307  eV     1   --> A              
     e( 36 - 36) =     15.06907  eV     1   --> A              
     e( 37 - 37) =     15.55621  eV     1   --> A              
     e( 38 - 38) =     16.31354  eV     1   --> A              
     e( 39 - 39) =     16.76003  eV     1   --> A              
     e( 40 - 40) =     17.36523  eV     1   --> A              
     e( 41 - 41) =     17.66811  eV     1   --> A              
     e( 42 - 42) =     17.93562  eV     1   --> A              
     e( 43 - 43) =     18.22829  eV     1   --> A              
     e( 44 - 44) =     19.28679  eV     1   --> A              
     e( 45 - 45) =     19.65958  eV     1   --> A              
     e( 46 - 46) =     19.84926  eV     1   --> A              
     e( 47 - 47) =     20.08840  eV     1   --> A              
     e( 48 - 48) =     20.46990  eV     1   --> A              
     e( 49 - 49) =     20.55863  eV     1   --> A              
     e( 50 - 50) =     20.70668  eV     1   --> A              
     e( 51 - 51) =     21.77335  eV     1   --> A              
     e( 52 - 52) =     22.30311  eV     1   --> A              
     e( 53 - 53) =     22.51740  eV     1   --> A              
     e( 54 - 54) =     22.62172  eV     1   --> A              
     e( 55 - 55) =     22.77359  eV     1   --> A              
     e( 56 - 56) =     23.08700  eV     1   --> A              
     e( 57 - 57) =     23.35876  eV     1   --> A              
     e( 58 - 58) =     23.48744  eV     1   --> A              
     e( 59 - 59) =     23.98467  eV     1   --> A              
     e( 60 - 60) =     24.31674  eV     1   --> A              
     e( 61 - 61) =     24.62981  eV     1   --> A              
     e( 62 - 62) =     24.88691  eV     1   --> A              
     e( 63 - 63) =     25.03798  eV     1   --> A              
     e( 64 - 64) =     25.87163  eV     1   --> A              
     e( 65 - 65) =     26.18983  eV     1   --> A              
     e( 66 - 66) =     26.51768  eV     1   --> A              
     e( 67 - 67) =     26.57323  eV     1   --> A              
     e( 68 - 68) =     27.05264  eV     1   --> A              
     e( 69 - 69) =     27.45168  eV     1   --> A              
     e( 70 - 70) =     27.74679  eV     1   --> A              
     e( 71 - 71) =     28.29659  eV     1   --> A              
     e( 72 - 72) =     28.41548  eV     1   --> A              

 **************************************************************************

 **************************************************************************

                    xk=(   0.19245,  -0.11110,  -0.00003  )

     Band symmetry, C_1 (1)     point group:

     e(  1 -  1) =    -14.35276  eV     1   --> A              
     e(  2 -  2) =    -14.09844  eV     1   --> A              
     e(  3 -  3) =     -8.58659  eV     1   --> A              
     e(  4 -  4) =     -8.29340  eV     1   --> A              
     e(  5 -  5) =     -1.22192  eV     1   --> A              
     e(  6 -  6) =     -0.94033  eV     1   --> A              
     e(  7 -  7) =     -0.36307  eV     1   --> A              
     e(  8 -  8) =      0.06891  eV     1   --> A              
     e(  9 -  9) =      0.30815  eV     1   --> A              
     e( 10 - 10) =      0.56001  eV     1   --> A              
     e( 11 - 11) =      0.71807  eV     1   --> A              
     e( 12 - 12) =      1.49417  eV     1   --> A              
     e( 13 - 13) =      2.61205  eV     1   --> A              
     e( 14 - 14) =      2.88329  eV     1   --> A              
     e( 15 - 15) =      3.72210  eV     1   --> A              
     e( 16 - 16) =      4.01204  eV     1   --> A              
     e( 17 - 17) =      4.30453  eV     1   --> A              
     e( 18 - 18) =      4.39652  eV     1   --> A              
     e( 19 - 19) =      7.41033  eV     1   --> A              
     e( 20 - 20) =      8.32048  eV     1   --> A              
     e( 21 - 21) =     10.07883  eV     1   --> A              
     e( 22 - 22) =     10.48255  eV     1   --> A              
     e( 23 - 23) =     10.85446  eV     1   --> A              
     e( 24 - 24) =     11.65103  eV     1   --> A              
     e( 25 - 25) =     11.97677  eV     1   --> A              
     e( 26 - 26) =     12.13446  eV     1   --> A              
     e( 27 - 27) =     12.23977  eV     1   --> A              
     e( 28 - 28) =     12.41837  eV     1   --> A              
     e( 29 - 29) =     12.65300  eV     1   --> A              
     e( 30 - 30) =     12.89589  eV     1   --> A              
     e( 31 - 31) =     13.90032  eV     1   --> A              
     e( 32 - 32) =     14.12095  eV     1   --> A              
     e( 33 - 33) =     14.30503  eV     1   --> A              
     e( 34 - 34) =     14.43900  eV     1   --> A              
     e( 35 - 35) =     15.05776  eV     1   --> A              
     e( 36 - 36) =     15.34889  eV     1   --> A              
     e( 37 - 37) =     15.81333  eV     1   --> A              
     e( 38 - 38) =     16.30525  eV     1   --> A              
     e( 39 - 39) =     16.70819  eV     1   --> A              
     e( 40 - 40) =     17.27506  eV     1   --> A              
     e( 41 - 41) =     17.58172  eV     1   --> A              
     e( 42 - 42) =     18.00665  eV     1   --> A              
     e( 43 - 43) =     18.20593  eV     1   --> A              
     e( 44 - 44) =     19.25387  eV     1   --> A              
     e( 45 - 45) =     19.66417  eV     1   --> A              
     e( 46 - 46) =     19.89207  eV     1   --> A              
     e( 47 - 47) =     20.07633  eV     1   --> A              
     e( 48 - 48) =     20.50492  eV     1   --> A              
     e( 49 - 49) =     20.67842  eV     1   --> A              
     e( 50 - 50) =     20.91747  eV     1   --> A              
     e( 51 - 51) =     21.72926  eV     1   --> A              
     e( 52 - 52) =     22.47463  eV     1   --> A              
     e( 53 - 53) =     22.65171  eV     1   --> A              
     e( 54 - 54) =     22.99896  eV     1   --> A              
     e( 55 - 55) =     23.02393  eV     1   --> A              
     e( 56 - 56) =     23.19171  eV     1   --> A              
     e( 57 - 57) =     23.35902  eV     1   --> A              
     e( 58 - 58) =     23.61708  eV     1   --> A              
     e( 59 - 59) =     24.01586  eV     1   --> A              
     e( 60 - 60) =     24.58962  eV     1   --> A              
     e( 61 - 61) =     24.76844  eV     1   --> A              
     e( 62 - 62) =     25.02883  eV     1   --> A              
     e( 63 - 63) =     25.42305  eV     1   --> A              
     e( 64 - 64) =     26.08024  eV     1   --> A              
     e( 65 - 65) =     26.15426  eV     1   --> A              
     e( 66 - 66) =     26.49630  eV     1   --> A              
     e( 67 - 67) =     26.56403  eV     1   --> A              
     e( 68 - 68) =     27.09934  eV     1   --> A              
     e( 69 - 69) =     27.69053  eV     1   --> A              
     e( 70 - 70) =     27.82096  eV     1   --> A              
     e( 71 - 71) =     28.47547  eV     1   --> A              
     e( 72 - 72) =     28.57706  eV     1   --> A              

 **************************************************************************

 **************************************************************************

                    xk=(   0.21170,  -0.12221,  -0.00003  )

     Band symmetry, C_1 (1)     point group:

     e(  1 -  1) =    -14.32263  eV     1   --> A              
     e(  2 -  2) =    -14.06821  eV     1   --> A              
     e(  3 -  3) =     -8.49441  eV     1   --> A              
     e(  4 -  4) =     -8.20102  eV     1   --> A              
     e(  5 -  5) =     -1.24786  eV     1   --> A              
     e(  6 -  6) =     -0.97351  eV     1   --> A              
     e(  7 -  7) =     -0.40640  eV     1   --> A              
     e(  8 -  8) =      0.06676  eV     1   --> A              
     e(  9 -  9) =      0.25754  eV     1   --> A              
     e( 10 - 10) =      0.50953  eV     1   --> A              
     e( 11 - 11) =      0.78782  eV     1   --> A              
     e( 12 - 12) =      1.51291  eV     1   --> A              
     e( 13 - 13) =      2.34964  eV     1   --> A              
     e( 14 - 14) =      2.61293  eV     1   --> A              
     e( 15 - 15) =      3.80534  eV     1   --> A              
     e( 16 - 16) =      3.84944  eV     1   --> A              
     e( 17 - 17) =      4.14168  eV     1   --> A              
     e( 18 - 18) =      4.43206  eV     1   --> A              
     e( 19 - 19) =      7.60909  eV     1   --> A              
     e( 20 - 20) =      8.46658  eV     1   --> A              
     e( 21 - 21) =      9.94136  eV     1   --> A              
     e( 22 - 22) =     10.26894  eV     1   --> A              
     e( 23 - 23) =     10.67765  eV     1   --> A              
     e( 24 - 24) =     11.47183  eV     1   --> A              
     e( 25 - 25) =     11.78629  eV     1   --> A              
     e( 26 - 26) =     12.02442  eV     1   --> A              
     e( 27 - 27) =     12.11830  eV     1   --> A              
     e( 28 - 28) =     12.33370  eV     1   --> A              
     e( 29 - 29) =     12.72594  eV     1   --> A              
     e( 30 - 30) =     12.97363  eV     1   --> A              
     e( 31 - 31) =     13.73656  eV     1   --> A              
     e( 32 - 32) =     14.12041  eV     1   --> A              
     e( 33 - 33) =     14.18909  eV     1   --> A              
     e( 34 - 34) =     14.42436  eV     1   --> A              
     e( 35 - 35) =     15.14200  eV     1   --> A              
     e( 36 - 36) =     15.58498  eV     1   --> A              
     e( 37 - 37) =     16.11991  eV     1   --> A              
     e( 38 - 38) =     16.34119  eV     1   --> A              
     e( 39 - 39) =     16.72986  eV     1   --> A              
     e( 40 - 40) =     17.19437  eV     1   --> A              
     e( 41 - 41) =     17.49156  eV     1   --> A              
     e( 42 - 42) =     18.05489  eV     1   --> A              
     e( 43 - 43) =     18.22399  eV     1   --> A              
     e( 44 - 44) =     19.23887  eV     1   --> A              
     e( 45 - 45) =     19.61641  eV     1   --> A              
     e( 46 - 46) =     19.90595  eV     1   --> A              
     e( 47 - 47) =     20.06703  eV     1   --> A              
     e( 48 - 48) =     20.53851  eV     1   --> A              
     e( 49 - 49) =     20.77309  eV     1   --> A              
     e( 50 - 50) =     21.19208  eV     1   --> A              
     e( 51 - 51) =     21.69188  eV     1   --> A              
     e( 52 - 52) =     22.56295  eV     1   --> A              
     e( 53 - 53) =     22.71216  eV     1   --> A              
     e( 54 - 54) =     23.14342  eV     1   --> A              
     e( 55 - 55) =     23.21836  eV     1   --> A              
     e( 56 - 56) =     23.30807  eV     1   --> A              
     e( 57 - 57) =     23.59999  eV     1   --> A              
     e( 58 - 58) =     23.90313  eV     1   --> A              
     e( 59 - 59) =     24.13047  eV     1   --> A              
     e( 60 - 60) =     24.79925  eV     1   --> A              
     e( 61 - 61) =     24.96624  eV     1   --> A              
     e( 62 - 62) =     25.23228  eV     1   --> A              
     e( 63 - 63) =     25.70198  eV     1   --> A              
     e( 64 - 64) =     26.15870  eV     1   --> A              
     e( 65 - 65) =     26.30180  eV     1   --> A              
     e( 66 - 66) =     26.46890  eV     1   --> A              
     e( 67 - 67) =     26.59350  eV     1   --> A              
     e( 68 - 68) =     27.22535  eV     1   --> A              
     e( 69 - 69) =     27.87741  eV     1   --> A              
     e( 70 - 70) =     27.94425  eV     1   --> A              
     e( 71 - 71) =     28.60090  eV     1   --> A              
     e( 72 - 72) =     28.77161  eV     1   --> A              

 **************************************************************************

 **************************************************************************

                    xk=(   0.23094,  -0.13332,  -0.00003  )

     Band symmetry, C_1 (1)     point group:

     e(  1 -  1) =    -14.29122  eV     1   --> A              
     e(  2 -  2) =    -14.03671  eV     1   --> A              
     e(  3 -  3) =     -8.39570  eV     1   --> A              
     e(  4 -  4) =     -8.10210  eV     1   --> A              
     e(  5 -  5) =     -1.30374  eV     1   --> A              
     e(  6 -  6) =     -1.03290  eV     1   --> A              
     e(  7 -  7) =     -0.40124  eV     1   --> A              
     e(  8 -  8) =      0.09185  eV     1   --> A              
     e(  9 -  9) =      0.20120  eV     1   --> A              
     e( 10 - 10) =      0.45315  eV     1   --> A              
     e( 11 - 11) =      0.85973  eV     1   --> A              
     e( 12 - 12) =      1.50313  eV     1   --> A              
     e( 13 - 13) =      2.11148  eV     1   --> A              
     e( 14 - 14) =      2.36387  eV     1   --> A              
     e( 15 - 15) =      3.67360  eV     1   --> A              
     e( 16 - 16) =      3.89005  eV     1   --> A              
     e( 17 - 17) =      3.96821  eV     1   --> A              
     e( 18 - 18) =      4.46560  eV     1   --> A              
     e( 19 - 19) =      7.81489  eV     1   --> A              
     e( 20 - 20) =      8.60528  eV     1   --> A              
     e( 21 - 21) =      9.75980  eV     1   --> A              
     e( 22 - 22) =     10.05600  eV     1   --> A              
     e( 23 - 23) =     10.53792  eV     1   --> A              
     e( 24 - 24) =     11.26376  eV     1   --> A              
     e( 25 - 25) =     11.61199  eV     1   --> A              
     e( 26 - 26) =     11.85149  eV     1   --> A              
     e( 27 - 27) =     12.05579  eV     1   --> A              
     e( 28 - 28) =     12.25864  eV     1   --> A              
     e( 29 - 29) =     12.83031  eV     1   --> A              
     e( 30 - 30) =     13.08219  eV     1   --> A              
     e( 31 - 31) =     13.55948  eV     1   --> A              
     e( 32 - 32) =     13.93165  eV     1   --> A              
     e( 33 - 33) =     14.21680  eV     1   --> A              
     e( 34 - 34) =     14.45300  eV     1   --> A              
     e( 35 - 35) =     15.21378  eV     1   --> A              
     e( 36 - 36) =     15.64650  eV     1   --> A              
     e( 37 - 37) =     16.23137  eV     1   --> A              
     e( 38 - 38) =     16.57914  eV     1   --> A              
     e( 39 - 39) =     16.88365  eV     1   --> A              
     e( 40 - 40) =     17.17028  eV     1   --> A              
     e( 41 - 41) =     17.42298  eV     1   --> A              
     e( 42 - 42) =     18.08776  eV     1   --> A              
     e( 43 - 43) =     18.28569  eV     1   --> A              
     e( 44 - 44) =     19.24576  eV     1   --> A              
     e( 45 - 45) =     19.53735  eV     1   --> A              
     e( 46 - 46) =     19.87889  eV     1   --> A              
     e( 47 - 47) =     20.08771  eV     1   --> A              
     e( 48 - 48) =     20.59564  eV     1   --> A              
     e( 49 - 49) =     20.84971  eV     1   --> A              
     e( 50 - 50) =     21.40519  eV     1   --> A              
     e( 51 - 51) =     21.72907  eV     1   --> A              
     e( 52 - 52) =     22.56922  eV     1   --> A              
     e( 53 - 53) =     22.71771  eV     1   --> A              
     e( 54 - 54) =     23.08530  eV     1   --> A              
     e( 55 - 55) =     23.33161  eV     1   --> A              
     e( 56 - 56) =     23.52660  eV     1   --> A              
     e( 57 - 57) =     24.04045  eV     1   --> A              
     e( 58 - 58) =     24.19309  eV     1   --> A              
     e( 59 - 59) =     24.38326  eV     1   --> A              
     e( 60 - 60) =     24.92031  eV     1   --> A              
     e( 61 - 61) =     25.19360  eV     1   --> A              
     e( 62 - 62) =     25.49196  eV     1   --> A              
     e( 63 - 63) =     25.77589  eV     1   --> A              
     e( 64 - 64) =     26.29226  eV     1   --> A              
     e( 65 - 65) =     26.47091  eV     1   --> A              
     e( 66 - 66) =     26.55628  eV     1   --> A              
     e( 67 - 67) =     26.65796  eV     1   --> A              
     e( 68 - 68) =     27.42402  eV     1   --> A              
     e( 69 - 69) =     27.90853  eV     1   --> A              
     e( 70 - 70) =     28.19558  eV     1   --> A              
     e( 71 - 71) =     28.67528  eV     1   --> A              
     e( 72 - 72) =     28.97616  eV     1   --> A              

 **************************************************************************

 **************************************************************************

                    xk=(   0.25019,  -0.14443,  -0.00004  )

     Band symmetry, C_1 (1)     point group:

     e(  1 -  1) =    -14.25893  eV     1   --> A              
     e(  2 -  2) =    -14.00433  eV     1   --> A              
     e(  3 -  3) =     -8.29119  eV     1   --> A              
     e(  4 -  4) =     -7.99735  eV     1   --> A              
     e(  5 -  5) =     -1.38034  eV     1   --> A              
     e(  6 -  6) =     -1.11387  eV     1   --> A              
     e(  7 -  7) =     -0.35449  eV     1   --> A              
     e(  8 -  8) =      0.13322  eV     1   --> A              
     e(  9 -  9) =      0.14203  eV     1   --> A              
     e( 10 - 10) =      0.39115  eV     1   --> A              
     e( 11 - 11) =      0.92909  eV     1   --> A              
     e( 12 - 12) =      1.43683  eV     1   --> A              
     e( 13 - 13) =      1.91003  eV     1   --> A              
     e( 14 - 14) =      2.16736  eV     1   --> A              
     e( 15 - 15) =      3.48642  eV     1   --> A              
     e( 16 - 16) =      3.77447  eV     1   --> A              
     e( 17 - 17) =      3.98281  eV     1   --> A              
     e( 18 - 18) =      4.49652  eV     1   --> A              
     e( 19 - 19) =      8.02581  eV     1   --> A              
     e( 20 - 20) =      8.72863  eV     1   --> A              
     e( 21 - 21) =      9.55110  eV     1   --> A              
     e( 22 - 22) =      9.83622  eV     1   --> A              
     e( 23 - 23) =     10.43256  eV     1   --> A              
     e( 24 - 24) =     11.04475  eV     1   --> A              
     e( 25 - 25) =     11.45257  eV     1   --> A              
     e( 26 - 26) =     11.69986  eV     1   --> A              
     e( 27 - 27) =     11.99098  eV     1   --> A              
     e( 28 - 28) =     12.19420  eV     1   --> A              
     e( 29 - 29) =     12.95506  eV     1   --> A              
     e( 30 - 30) =     13.20640  eV     1   --> A              
     e( 31 - 31) =     13.38882  eV     1   --> A              
     e( 32 - 32) =     13.75262  eV     1   --> A              
     e( 33 - 33) =     14.19483  eV     1   --> A              
     e( 34 - 34) =     14.52305  eV     1   --> A              
     e( 35 - 35) =     15.27842  eV     1   --> A              
     e( 36 - 36) =     15.55589  eV     1   --> A              
     e( 37 - 37) =     16.18915  eV     1   --> A              
     e( 38 - 38) =     16.81825  eV     1   --> A              
     e( 39 - 39) =     17.05757  eV     1   --> A              
     e( 40 - 40) =     17.27853  eV     1   --> A              
     e( 41 - 41) =     17.49668  eV     1   --> A              
     e( 42 - 42) =     18.12196  eV     1   --> A              
     e( 43 - 43) =     18.38481  eV     1   --> A              
     e( 44 - 44) =     19.27206  eV     1   --> A              
     e( 45 - 45) =     19.44644  eV     1   --> A              
     e( 46 - 46) =     19.84442  eV     1   --> A              
     e( 47 - 47) =     20.12675  eV     1   --> A              
     e( 48 - 48) =     20.67613  eV     1   --> A              
     e( 49 - 49) =     20.90313  eV     1   --> A              
     e( 50 - 50) =     21.48073  eV     1   --> A              
     e( 51 - 51) =     21.88912  eV     1   --> A              
     e( 52 - 52) =     22.50602  eV     1   --> A              
     e( 53 - 53) =     22.72893  eV     1   --> A              
     e( 54 - 54) =     23.03267  eV     1   --> A              
     e( 55 - 55) =     23.44884  eV     1   --> A              
     e( 56 - 56) =     23.71688  eV     1   --> A              
     e( 57 - 57) =     24.37833  eV     1   --> A              
     e( 58 - 58) =     24.50223  eV     1   --> A              
     e( 59 - 59) =     24.79169  eV     1   --> A              
     e( 60 - 60) =     25.03032  eV     1   --> A              
     e( 61 - 61) =     25.38479  eV     1   --> A              
     e( 62 - 62) =     25.63960  eV     1   --> A              
     e( 63 - 63) =     25.90594  eV     1   --> A              
     e( 64 - 64) =     26.39778  eV     1   --> A              
     e( 65 - 65) =     26.49691  eV     1   --> A              
     e( 66 - 66) =     26.71875  eV     1   --> A              
     e( 67 - 67) =     26.96473  eV     1   --> A              
     e( 68 - 68) =     27.66736  eV     1   --> A              
     e( 69 - 69) =     27.90960  eV     1   --> A              
     e( 70 - 70) =     28.37659  eV     1   --> A              
     e( 71 - 71) =     28.76874  eV     1   --> A              
     e( 72 - 72) =     29.15707  eV     1   --> A              

 **************************************************************************

 **************************************************************************

                    xk=(   0.26943,  -0.15554,  -0.00004  )

     Band symmetry, C_1 (1)     point group:

     e(  1 -  1) =    -14.22617  eV     1   --> A              
     e(  2 -  2) =    -13.97146  eV     1   --> A              
     e(  3 -  3) =     -8.18174  eV     1   --> A              
     e(  4 -  4) =     -7.88764  eV     1   --> A              
     e(  5 -  5) =     -1.46749  eV     1   --> A              
     e(  6 -  6) =     -1.20590  eV     1   --> A              
     e(  7 -  7) =     -0.28114  eV     1   --> A              
     e(  8 -  8) =      0.07073  eV     1   --> A              
     e(  9 -  9) =      0.18945  eV     1   --> A              
     e( 10 - 10) =      0.32462  eV     1   --> A              
     e( 11 - 11) =      0.98341  eV     1   --> A              
     e( 12 - 12) =      1.30821  eV     1   --> A              
     e( 13 - 13) =      1.73246  eV     1   --> A              
     e( 14 - 14) =      2.06514  eV     1   --> A              
     e( 15 - 15) =      3.28967  eV     1   --> A              
     e( 16 - 16) =      3.57741  eV     1   --> A              
     e( 17 - 17) =      4.06559  eV     1   --> A              
     e( 18 - 18) =      4.52487  eV     1   --> A              
     e( 19 - 19) =      8.23957  eV     1   --> A              
     e( 20 - 20) =      8.82358  eV     1   --> A              
     e( 21 - 21) =      9.33587  eV     1   --> A              
     e( 22 - 22) =      9.61122  eV     1   --> A              
     e( 23 - 23) =     10.35155  eV     1   --> A              
     e( 24 - 24) =     10.82864  eV     1   --> A              
     e( 25 - 25) =     11.31197  eV     1   --> A              
     e( 26 - 26) =     11.57002  eV     1   --> A              
     e( 27 - 27) =     11.92771  eV     1   --> A              
     e( 28 - 28) =     12.13835  eV     1   --> A              
     e( 29 - 29) =     13.09374  eV     1   --> A              
     e( 30 - 30) =     13.21417  eV     1   --> A              
     e( 31 - 31) =     13.35821  eV     1   --> A              
     e( 32 - 32) =     13.59658  eV     1   --> A              
     e( 33 - 33) =     14.14664  eV     1   --> A              
     e( 34 - 34) =     14.60162  eV     1   --> A              
     e( 35 - 35) =     15.33715  eV     1   --> A              
     e( 36 - 36) =     15.39326  eV     1   --> A              
     e( 37 - 37) =     16.10207  eV     1   --> A              
     e( 38 - 38) =     16.84734  eV     1   --> A              
     e( 39 - 39) =     17.11520  eV     1   --> A              
     e( 40 - 40) =     17.54605  eV     1   --> A              
     e( 41 - 41) =     17.77012  eV     1   --> A              
     e( 42 - 42) =     18.17649  eV     1   --> A              
     e( 43 - 43) =     18.53168  eV     1   --> A              
     e( 44 - 44) =     19.30854  eV     1   --> A              
     e( 45 - 45) =     19.37055  eV     1   --> A              
     e( 46 - 46) =     19.84397  eV     1   --> A              
     e( 47 - 47) =     20.17085  eV     1   --> A              
     e( 48 - 48) =     20.77359  eV     1   --> A              
     e( 49 - 49) =     20.94097  eV     1   --> A              
     e( 50 - 50) =     21.49711  eV     1   --> A              
     e( 51 - 51) =     22.06137  eV     1   --> A              
     e( 52 - 52) =     22.43727  eV     1   --> A              
     e( 53 - 53) =     22.74576  eV     1   --> A              
     e( 54 - 54) =     23.01190  eV     1   --> A              
     e( 55 - 55) =     23.55446  eV     1   --> A              
     e( 56 - 56) =     23.87518  eV     1   --> A              
     e( 57 - 57) =     24.53530  eV     1   --> A              
     e( 58 - 58) =     24.88971  eV     1   --> A              
     e( 59 - 59) =     25.16906  eV     1   --> A              
     e( 60 - 60) =     25.21741  eV     1   --> A              
     e( 61 - 61) =     25.54905  eV     1   --> A              
     e( 62 - 62) =     25.70534  eV     1   --> A              
     e( 63 - 63) =     26.09193  eV     1   --> A              
     e( 64 - 64) =     26.45774  eV     1   --> A              
     e( 65 - 65) =     26.57969  eV     1   --> A              
     e( 66 - 66) =     26.96557  eV     1   --> A              
     e( 67 - 67) =     27.30767  eV     1   --> A              
     e( 68 - 68) =     27.87817  eV     1   --> A              
     e( 69 - 69) =     27.93815  eV     1   --> A              
     e( 70 - 70) =     28.40590  eV     1   --> A              
     e( 71 - 71) =     28.94839  eV     1   --> A              
     e( 72 - 72) =     29.15756  eV     1   --> A              

 **************************************************************************

 **************************************************************************

                    xk=(   0.28868,  -0.16665,  -0.00004  )

     Band symmetry, C_1 (1)     point group:

     e(  1 -  1) =    -14.19336  eV     1   --> A              
     e(  2 -  2) =    -13.93855  eV     1   --> A              
     e(  3 -  3) =     -8.06833  eV     1   --> A              
     e(  4 -  4) =     -7.77394  eV     1   --> A              
     e(  5 -  5) =     -1.55742  eV     1   --> A              
     e(  6 -  6) =     -1.30015  eV     1   --> A              
     e(  7 -  7) =     -0.19601  eV     1   --> A              
     e(  8 -  8) =     -0.00239  eV     1   --> A              
     e(  9 -  9) =      0.22344  eV     1   --> A              
     e( 10 - 10) =      0.26898  eV     1   --> A              
     e( 11 - 11) =      0.98090  eV     1   --> A              
     e( 12 - 12) =      1.17812  eV     1   --> A              
     e( 13 - 13) =      1.58534  eV     1   --> A              
     e( 14 - 14) =      2.04576  eV     1   --> A              
     e( 15 - 15) =      3.08530  eV     1   --> A              
     e( 16 - 16) =      3.37186  eV     1   --> A              
     e( 17 - 17) =      4.14292  eV     1   --> A              
     e( 18 - 18) =      4.55105  eV     1   --> A              
     e( 19 - 19) =      8.45248  eV     1   --> A              
     e( 20 - 20) =      8.85805  eV     1   --> A              
     e( 21 - 21) =      9.14433  eV     1   --> A              
     e( 22 - 22) =      9.39051  eV     1   --> A              
     e( 23 - 23) =     10.28884  eV     1   --> A              
     e( 24 - 24) =     10.62367  eV     1   --> A              
     e( 25 - 25) =     11.19851  eV     1   --> A              
     e( 26 - 26) =     11.45438  eV     1   --> A              
     e( 27 - 27) =     11.86651  eV     1   --> A              
     e( 28 - 28) =     12.08862  eV     1   --> A              
     e( 29 - 29) =     13.07955  eV     1   --> A              
     e( 30 - 30) =     13.24887  eV     1   --> A              
     e( 31 - 31) =     13.40959  eV     1   --> A              
     e( 32 - 32) =     13.55459  eV     1   --> A              
     e( 33 - 33) =     14.08925  eV     1   --> A              
     e( 34 - 34) =     14.65790  eV     1   --> A              
     e( 35 - 35) =     15.19705  eV     1   --> A              
     e( 36 - 36) =     15.40410  eV     1   --> A              
     e( 37 - 37) =     15.99377  eV     1   --> A              
     e( 38 - 38) =     16.82446  eV     1   --> A              
     e( 39 - 39) =     17.08445  eV     1   --> A              
     e( 40 - 40) =     17.84759  eV     1   --> A              
     e( 41 - 41) =     17.96383  eV     1   --> A              
     e( 42 - 42) =     18.32201  eV     1   --> A              
     e( 43 - 43) =     18.71894  eV     1   --> A              
     e( 44 - 44) =     19.33229  eV     1   --> A              
     e( 45 - 45) =     19.38000  eV     1   --> A              
     e( 46 - 46) =     19.91012  eV     1   --> A              
     e( 47 - 47) =     20.21989  eV     1   --> A              
     e( 48 - 48) =     20.88350  eV     1   --> A              
     e( 49 - 49) =     20.97985  eV     1   --> A              
     e( 50 - 50) =     21.49440  eV     1   --> A              
     e( 51 - 51) =     22.17424  eV     1   --> A              
     e( 52 - 52) =     22.41034  eV     1   --> A              
     e( 53 - 53) =     22.75953  eV     1   --> A              
     e( 54 - 54) =     23.03237  eV     1   --> A              
     e( 55 - 55) =     23.64406  eV     1   --> A              
     e( 56 - 56) =     24.00262  eV     1   --> A              
     e( 57 - 57) =     24.64719  eV     1   --> A              
     e( 58 - 58) =     25.05632  eV     1   --> A              
     e( 59 - 59) =     25.40989  eV     1   --> A              
[...]
     e( 71 - 71) =     27.71021  eV     1   --> A'             
     e( 72 - 72) =     27.97488  eV     1   --> A'             

 **************************************************************************

 **************************************************************************

                    xk=(   0.05774,   0.00000,  -0.00001  )

     Band symmetry, C_s (m)     point group:

     e(  1 -  1) =    -14.50395  eV     1   --> A'             
     e(  2 -  2) =    -14.25007  eV     1   --> A'             
     e(  3 -  3) =     -9.01755  eV     1   --> A'             
     e(  4 -  4) =     -8.72518  eV     1   --> A'             
     e(  5 -  5) =     -1.45545  eV     1   --> A'             
     e(  6 -  6) =     -1.04369  eV     1   --> A'             
     e(  7 -  7) =      0.35525  eV     1   --> A'             
     e(  8 -  8) =      0.43610  eV     1   --> A'             
     e(  9 -  9) =      0.51937  eV     1   --> A''            
     e( 10 - 10) =      0.68417  eV     1   --> A'             
     e( 11 - 11) =      0.77297  eV     1   --> A''            
     e( 12 - 12) =      1.26350  eV     1   --> A'             
     e( 13 - 13) =      2.98888  eV     1   --> A'             
     e( 14 - 14) =      4.07312  eV     1   --> A'             
     e( 15 - 15) =      4.57469  eV     1   --> A'             
     e( 16 - 16) =      4.74260  eV     1   --> A''            
     e( 17 - 17) =      4.86639  eV     1   --> A'             
     e( 18 - 18) =      5.03525  eV     1   --> A''            
     e( 19 - 19) =      6.35640  eV     1   --> A'             
     e( 20 - 20) =      7.44410  eV     1   --> A'             
     e( 21 - 21) =     10.32196  eV     1   --> A'             
     e( 22 - 22) =     11.27520  eV     1   --> A'             
     e( 23 - 23) =     11.59780  eV     1   --> A'             
     e( 24 - 24) =     12.02218  eV     1   --> A'             
     e( 25 - 25) =     12.27008  eV     1   --> A'             
     e( 26 - 26) =     12.38325  eV     1   --> A''            
     e( 27 - 27) =     12.50244  eV     1   --> A'             
     e( 28 - 28) =     12.66734  eV     1   --> A''            
     e( 29 - 29) =     13.37402  eV     1   --> A'             
     e( 30 - 30) =     13.68744  eV     1   --> A'             
     e( 31 - 31) =     13.90889  eV     1   --> A''            
     e( 32 - 32) =     13.94609  eV     1   --> A'             
     e( 33 - 33) =     14.17356  eV     1   --> A''            
     e( 34 - 34) =     14.95291  eV     1   --> A'             
     e( 35 - 35) =     15.45378  eV     1   --> A'             
     e( 36 - 36) =     15.58555  eV     1   --> A''            
     e( 37 - 37) =     15.93435  eV     1   --> A''            
     e( 38 - 38) =     16.12403  eV     1   --> A'             
     e( 39 - 39) =     16.81549  eV     1   --> A'             
     e( 40 - 40) =     17.21596  eV     1   --> A'             
     e( 41 - 41) =     17.77705  eV     1   --> A'             
     e( 42 - 42) =     17.92150  eV     1   --> A''            
     e( 43 - 43) =     18.11977  eV     1   --> A'             
     e( 44 - 44) =     18.27863  eV     1   --> A''            
     e( 45 - 45) =     19.48306  eV     1   --> A'             
     e( 46 - 46) =     19.76579  eV     1   --> A'             
     e( 47 - 47) =     19.91413  eV     1   --> A'             
     e( 48 - 48) =     20.10822  eV     1   --> A'             
     e( 49 - 49) =     20.18308  eV     1   --> A''            
     e( 50 - 50) =     20.35102  eV     1   --> A'             
     e( 51 - 51) =     20.54575  eV     1   --> A''            
     e( 52 - 52) =     20.77192  eV     1   --> A'             
     e( 53 - 53) =     21.73345  eV     1   --> A'             
     e( 54 - 54) =     21.93601  eV     1   --> A'             
     e( 55 - 55) =     22.34411  eV     1   --> A'             
     e( 56 - 56) =     22.63138  eV     1   --> A'             
     e( 57 - 57) =     22.82154  eV     1   --> A''            
     e( 58 - 58) =     22.89509  eV     1   --> A'             
     e( 59 - 59) =     23.20660  eV     1   --> A''            
     e( 60 - 60) =     23.86019  eV     1   --> A'             
     e( 61 - 61) =     24.40273  eV     1   --> A'             
     e( 62 - 62) =     24.54828  eV     1   --> A''            
     e( 63 - 63) =     24.71037  eV     1   --> A'             
     e( 64 - 64) =     25.00618  eV     1   --> A''            
     e( 65 - 65) =     25.35761  eV     1   --> A'             
     e( 66 - 66) =     26.36863  eV     1   --> A'             
     e( 67 - 67) =     26.68731  eV     1   --> A'             
     e( 68 - 68) =     26.76249  eV     1   --> A''            
     e( 69 - 69) =     27.20794  eV     1   --> A'             
     e( 70 - 70) =     27.60698  eV     1   --> A'             
     e( 71 - 71) =     27.64979  eV     1   --> A''            
     e( 72 - 72) =     28.12290  eV     1   --> A'             

 **************************************************************************

 **************************************************************************

                    xk=(   0.03849,   0.00000,  -0.00001  )

     Band symmetry, C_s (m)     point group:

     e(  1 -  1) =    -14.51064  eV     1   --> A'             
     e(  2 -  2) =    -14.25677  eV     1   --> A'             
     e(  3 -  3) =     -9.03557  eV     1   --> A'             
     e(  4 -  4) =     -8.74322  eV     1   --> A'             
     e(  5 -  5) =     -1.47187  eV     1   --> A'             
     e(  6 -  6) =     -1.05566  eV     1   --> A'             
     e(  7 -  7) =      0.34527  eV     1   --> A'             
     e(  8 -  8) =      0.48778  eV     1   --> A'             
     e(  9 -  9) =      0.52710  eV     1   --> A''            
     e( 10 - 10) =      0.73889  eV     1   --> A'             
     e( 11 - 11) =      0.78071  eV     1   --> A''            
     e( 12 - 12) =      1.24733  eV     1   --> A'             
     e( 13 - 13) =      2.94986  eV     1   --> A'             
     e( 14 - 14) =      4.05249  eV     1   --> A'             
     e( 15 - 15) =      4.69398  eV     1   --> A'             
     e( 16 - 16) =      4.76986  eV     1   --> A''            
     e( 17 - 17) =      4.98613  eV     1   --> A'             
     e( 18 - 18) =      5.06258  eV     1   --> A''            
     e( 19 - 19) =      6.30432  eV     1   --> A'             
     e( 20 - 20) =      7.39952  eV     1   --> A'             
     e( 21 - 21) =     10.31980  eV     1   --> A'             
     e( 22 - 22) =     11.18663  eV     1   --> A'             
     e( 23 - 23) =     11.51432  eV     1   --> A'             
     e( 24 - 24) =     12.12509  eV     1   --> A'             
     e( 25 - 25) =     12.30756  eV     1   --> A'             
     e( 26 - 26) =     12.34135  eV     1   --> A''            
     e( 27 - 27) =     12.53959  eV     1   --> A'             
     e( 28 - 28) =     12.62516  eV     1   --> A''            
     e( 29 - 29) =     13.40915  eV     1   --> A'             
     e( 30 - 30) =     13.78476  eV     1   --> A'             
     e( 31 - 31) =     13.88822  eV     1   --> A''            
     e( 32 - 32) =     14.04034  eV     1   --> A'             
     e( 33 - 33) =     14.15133  eV     1   --> A''            
     e( 34 - 34) =     15.16323  eV     1   --> A'             
     e( 35 - 35) =     15.60975  eV     1   --> A'             
     e( 36 - 36) =     15.63041  eV     1   --> A''            
     e( 37 - 37) =     15.95855  eV     1   --> A''            
     e( 38 - 38) =     16.04436  eV     1   --> A'             
     e( 39 - 39) =     16.69237  eV     1   --> A'             
     e( 40 - 40) =     17.16262  eV     1   --> A'             
     e( 41 - 41) =     17.81625  eV     1   --> A'             
     e( 42 - 42) =     17.89821  eV     1   --> A''            
     e( 43 - 43) =     18.12114  eV     1   --> A'             
     e( 44 - 44) =     18.21304  eV     1   --> A''            
     e( 45 - 45) =     19.37063  eV     1   --> A'             
     e( 46 - 46) =     19.65814  eV     1   --> A'             
     e( 47 - 47) =     19.86547  eV     1   --> A'             
     e( 48 - 48) =     20.11343  eV     1   --> A'             
     e( 49 - 49) =     20.18275  eV     1   --> A''            
     e( 50 - 50) =     20.42991  eV     1   --> A'             
     e( 51 - 51) =     20.52383  eV     1   --> A''            
     e( 52 - 52) =     20.67001  eV     1   --> A'             
     e( 53 - 53) =     21.63529  eV     1   --> A'             
     e( 54 - 54) =     21.80930  eV     1   --> A'             
     e( 55 - 55) =     22.37032  eV     1   --> A'             
     e( 56 - 56) =     22.68246  eV     1   --> A'             
     e( 57 - 57) =     22.81213  eV     1   --> A''            
     e( 58 - 58) =     22.94493  eV     1   --> A'             
     e( 59 - 59) =     23.13978  eV     1   --> A''            
     e( 60 - 60) =     23.67354  eV     1   --> A'             
     e( 61 - 61) =     24.51289  eV     1   --> A'             
     e( 62 - 62) =     24.58408  eV     1   --> A''            
     e( 63 - 63) =     24.73802  eV     1   --> A'             
     e( 64 - 64) =     24.99360  eV     1   --> A''            
     e( 65 - 65) =     25.16525  eV     1   --> A'             
     e( 66 - 66) =     26.45570  eV     1   --> A'             
     e( 67 - 67) =     26.63304  eV     1   --> A'             
     e( 68 - 68) =     26.68513  eV     1   --> A''            
     e( 69 - 69) =     27.23943  eV     1   --> A'             
     e( 70 - 70) =     27.54425  eV     1   --> A'             
     e( 71 - 71) =     27.60185  eV     1   --> A''            
     e( 72 - 72) =     28.16978  eV     1   --> A'             

 **************************************************************************

 **************************************************************************

                    xk=(   0.01925,   0.00000,  -0.00000  )

     Band symmetry, C_s (m)     point group:

     e(  1 -  1) =    -14.51467  eV     1   --> A'             
     e(  2 -  2) =    -14.26082  eV     1   --> A'             
     e(  3 -  3) =     -9.04640  eV     1   --> A'             
     e(  4 -  4) =     -8.75407  eV     1   --> A'             
     e(  5 -  5) =     -1.48185  eV     1   --> A'             
     e(  6 -  6) =     -1.06305  eV     1   --> A'             
     e(  7 -  7) =      0.33783  eV     1   --> A'             
     e(  8 -  8) =      0.52127  eV     1   --> A'             
     e(  9 -  9) =      0.53177  eV     1   --> A''            
     e( 10 - 10) =      0.77423  eV     1   --> A'             
     e( 11 - 11) =      0.78539  eV     1   --> A''            
     e( 12 - 12) =      1.23654  eV     1   --> A'             
     e( 13 - 13) =      2.92509  eV     1   --> A'             
     e( 14 - 14) =      4.03923  eV     1   --> A'             
     e( 15 - 15) =      4.76855  eV     1   --> A'             
     e( 16 - 16) =      4.78651  eV     1   --> A''            
     e( 17 - 17) =      5.06119  eV     1   --> A'             
     e( 18 - 18) =      5.07927  eV     1   --> A''            
     e( 19 - 19) =      6.27213  eV     1   --> A'             
     e( 20 - 20) =      7.37225  eV     1   --> A'             
     e( 21 - 21) =     10.31729  eV     1   --> A'             
     e( 22 - 22) =     11.12743  eV     1   --> A'             
     e( 23 - 23) =     11.45756  eV     1   --> A'             
     e( 24 - 24) =     12.20175  eV     1   --> A'             
     e( 25 - 25) =     12.31240  eV     1   --> A'             
     e( 26 - 26) =     12.31507  eV     1   --> A''            
     e( 27 - 27) =     12.57537  eV     1   --> A'             
     e( 28 - 28) =     12.59873  eV     1   --> A''            
     e( 29 - 29) =     13.42422  eV     1   --> A'             
     e( 30 - 30) =     13.85067  eV     1   --> A'             
     e( 31 - 31) =     13.87599  eV     1   --> A''            
     e( 32 - 32) =     14.11000  eV     1   --> A'             
     e( 33 - 33) =     14.13811  eV     1   --> A''            
     e( 34 - 34) =     15.33939  eV     1   --> A'             
     e( 35 - 35) =     15.66146  eV     1   --> A''            
     e( 36 - 36) =     15.68178  eV     1   --> A'             
     e( 37 - 37) =     15.97442  eV     1   --> A''            
     e( 38 - 38) =     15.98881  eV     1   --> A'             
     e( 39 - 39) =     16.60192  eV     1   --> A'             
     e( 40 - 40) =     17.09582  eV     1   --> A'             
     e( 41 - 41) =     17.85704  eV     1   --> A'             
     e( 42 - 42) =     17.88219  eV     1   --> A''            
     e( 43 - 43) =     18.14128  eV     1   --> A'             
     e( 44 - 44) =     18.16877  eV     1   --> A''            
     e( 45 - 45) =     19.29333  eV     1   --> A'             
     e( 46 - 46) =     19.58362  eV     1   --> A'             
     e( 47 - 47) =     19.78711  eV     1   --> A'             
     e( 48 - 48) =     20.17130  eV     1   --> A'             
     e( 49 - 49) =     20.18789  eV     1   --> A''            
     e( 50 - 50) =     20.48996  eV     1   --> A'             
     e( 51 - 51) =     20.51032  eV     1   --> A''            
     e( 52 - 52) =     20.59814  eV     1   --> A'             
     e( 53 - 53) =     21.56733  eV     1   --> A'             
     e( 54 - 54) =     21.72074  eV     1   --> A'             
     e( 55 - 55) =     22.36604  eV     1   --> A'             
     e( 56 - 56) =     22.75972  eV     1   --> A'             
     e( 57 - 57) =     22.80022  eV     1   --> A''            
     e( 58 - 58) =     23.02662  eV     1   --> A'             
     e( 59 - 59) =     23.10001  eV     1   --> A''            
     e( 60 - 60) =     23.49818  eV     1   --> A'             
     e( 61 - 61) =     24.60955  eV     1   --> A'             
     e( 62 - 62) =     24.62562  eV     1   --> A''            
     e( 63 - 63) =     24.75225  eV     1   --> A'             
     e( 64 - 64) =     24.97144  eV     1   --> A''            
     e( 65 - 65) =     25.02286  eV     1   --> A'             
     e( 66 - 66) =     26.50337  eV     1   --> A'             
     e( 67 - 67) =     26.61506  eV     1   --> A'             
     e( 68 - 68) =     26.63658  eV     1   --> A''            
     e( 69 - 69) =     27.22228  eV     1   --> A'             
     e( 70 - 70) =     27.54844  eV     1   --> A'             
     e( 71 - 71) =     27.57034  eV     1   --> A''            
     e( 72 - 72) =     28.10052  eV     1   --> A'             

 **************************************************************************

 **************************************************************************

                    xk=(   0.00000,   0.00000,   0.00000  )

     Band symmetry, C_s (m)     point group:

     e(  1 -  1) =    -14.51602  eV     1   --> A'             
     e(  2 -  2) =    -14.26217  eV     1   --> A'             
     e(  3 -  3) =     -9.05001  eV     1   --> A'             
     e(  4 -  4) =     -8.75769  eV     1   --> A'             
     e(  5 -  5) =     -1.48520  eV     1   --> A'             
     e(  6 -  6) =     -1.06555  eV     1   --> A'             
     e(  7 -  7) =      0.33525  eV     1   --> A'             
     e(  8 -  8) =      0.53275  eV     1   --> A'             
     e(  9 -  9) =      0.53332  eV     1   --> A''            
     e( 10 - 10) =      0.78651  eV     1   --> A'             
     e( 11 - 11) =      0.78694  eV     1   --> A''            
     e( 12 - 12) =      1.23270  eV     1   --> A'             
     e( 13 - 13) =      2.91660  eV     1   --> A'             
     e( 14 - 14) =      4.03467  eV     1   --> A'             
     e( 15 - 15) =      4.79211  eV     1   --> A''            
     e( 16 - 16) =      4.79394  eV     1   --> A'             
     e( 17 - 17) =      5.08489  eV     1   --> A''            
     e( 18 - 18) =      5.08679  eV     1   --> A'             
     e( 19 - 19) =      6.26121  eV     1   --> A'             
     e( 20 - 20) =      7.36307  eV     1   --> A'             
     e( 21 - 21) =     10.31622  eV     1   --> A'             
     e( 22 - 22) =     11.10679  eV     1   --> A'             
     e( 23 - 23) =     11.43770  eV     1   --> A'             
     e( 24 - 24) =     12.23468  eV     1   --> A'             
     e( 25 - 25) =     12.30602  eV     1   --> A'             
     e( 26 - 26) =     12.30612  eV     1   --> A''            
     e( 27 - 27) =     12.58958  eV     1   --> A'             
     e( 28 - 28) =     12.58973  eV     1   --> A''            
     e( 29 - 29) =     13.42821  eV     1   --> A'             
     e( 30 - 30) =     13.87194  eV     1   --> A''            
     e( 31 - 31) =     13.87406  eV     1   --> A'             
     e( 32 - 32) =     14.13373  eV     1   --> A''            
     e( 33 - 33) =     14.13561  eV     1   --> A'             
     e( 34 - 34) =     15.42459  eV     1   --> A'             
     e( 35 - 35) =     15.67260  eV     1   --> A''            
     e( 36 - 36) =     15.67411  eV     1   --> A'             
     e( 37 - 37) =     15.97991  eV     1   --> A''            
     e( 38 - 38) =     15.98148  eV     1   --> A'             
     e( 39 - 39) =     16.56748  eV     1   --> A'             
     e( 40 - 40) =     17.06647  eV     1   --> A'             
     e( 41 - 41) =     17.87428  eV     1   --> A'             
     e( 42 - 42) =     17.87656  eV     1   --> A''            
     e( 43 - 43) =     18.15085  eV     1   --> A'             
     e( 44 - 44) =     18.15304  eV     1   --> A''            
     e( 45 - 45) =     19.26607  eV     1   --> A'             
     e( 46 - 46) =     19.55652  eV     1   --> A'             
     e( 47 - 47) =     19.75824  eV     1   --> A'             
     e( 48 - 48) =     20.19067  eV     1   --> A''            
     e( 49 - 49) =     20.19652  eV     1   --> A'             
     e( 50 - 50) =     20.50562  eV     1   --> A''            
     e( 51 - 51) =     20.51126  eV     1   --> A'             
     e( 52 - 52) =     20.57126  eV     1   --> A'             
     e( 53 - 53) =     21.54286  eV     1   --> A'             
     e( 54 - 54) =     21.68965  eV     1   --> A'             
     e( 55 - 55) =     22.36117  eV     1   --> A'             
     e( 56 - 56) =     22.79351  eV     1   --> A'             
     e( 57 - 57) =     22.79512  eV     1   --> A''            
     e( 58 - 58) =     23.08314  eV     1   --> A'             
     e( 59 - 59) =     23.08681  eV     1   --> A''            
     e( 60 - 60) =     23.40843  eV     1   --> A'             
     e( 61 - 61) =     24.64504  eV     1   --> A''            
     e( 62 - 62) =     24.65131  eV     1   --> A'             
     e( 63 - 63) =     24.76082  eV     1   --> A'             
     e( 64 - 64) =     24.95940  eV     1   --> A''            
     e( 65 - 65) =     24.96172  eV     1   --> A'             
     e( 66 - 66) =     26.50961  eV     1   --> A'             
     e( 67 - 67) =     26.62015  eV     1   --> A''            
     e( 68 - 68) =     26.62097  eV     1   --> A'             
     e( 69 - 69) =     27.20822  eV     1   --> A'             
     e( 70 - 70) =     27.55936  eV     1   --> A''            
     e( 71 - 71) =     27.56105  eV     1   --> A'             
     e( 72 - 72) =     28.06524  eV     1   --> A'             

 **************************************************************************
 
     BANDS        :      7.52s CPU     12.49s WALL

 
   This run was terminated on:  13:39:30   7Mar2023            

=------------------------------------------------------------------------------=
   JOB DONE.
=------------------------------------------------------------------------------=
