
     Program PWSCF v.7.1 starts on  7Mar2023 at 13:35: 9 

     This program is part of the open-source Quantum ESPRESSO suite
     for quantum simulation of materials; please cite
         "P. Giannozzi et al., J. Phys.:Condens. Matter 21 395502 (2009);
         "P. Giannozzi et al., J. Phys.:Condens. Matter 29 465901 (2017);
         "P. Giannozzi et al., J. Chem. Phys. 152 154105 (2020);
          URL http://www.quantum-espresso.org", 
     in publications or presentations arising from this work. More details at
     http://www.quantum-espresso.org/quote

     Parallel version (MPI), running on    22 processors

     MPI processes distributed on     1 nodes
     97478 MiB available memory on the printing compute node when the environment starts
 
     Waiting for input...
     Reading input from standard input

     Current dimensions of program PWSCF are:
     Max number of different atomic species (ntypx) = 10
     Max number of k-points (npk) =  40000
     Max angular momentum in pseudopotentials (lmaxx) =  4
     Message from routine volume:
     axis vectors are left-handed

     Atomic positions and unit cell read from directory:
     ./work/Al2SO.save/
     Atomic positions from file used, from input discarded
 
     Message from routine volume:
     axis vectors are left-handed
     file Al.pbe-n-kjpaw_psl.1.0.0.UPF: wavefunction(s)  3S 3P renormalized
     file O.pbe-n-kjpaw_psl.1.0.0.UPF: wavefunction(s)  2S 2P renormalized
     file S.pbe-n-kjpaw_psl.1.0.0.UPF: wavefunction(s)  3S 3P renormalized
     Message from routine setup:
     using ibrav=0 with symmetry is DISCOURAGED, use correct ibrav instead
 
     R & G space division:  proc/nbgrp/npool/nimage =      22
     Subspace diagonalization in iterative solution of the eigenvalue problem:
     a serial algorithm will be used

 
     Parallelization info
     --------------------
     sticks:   dense  smooth     PW     G-vecs:    dense   smooth      PW
     Min          28      28      8                 2675     2675     422
     Max          29      29      9                 2682     2682     437
     Sum         637     637    187                58931    58931    9503
 
     Using Slab Decomposition
 


     bravais-lattice index     =            0
     lattice parameter (alat)  =       6.1447  a.u.
     unit-cell volume          =     939.5175 (a.u.)^3
     number of atoms/cell      =            8
     number of atomic types    =            3
     number of electrons       =        36.00
     number of Kohn-Sham states=           72
     kinetic-energy cutoff     =      60.0000  Ry
     charge density cutoff     =     240.0000  Ry
     Exchange-correlation= SLA  PW   PBX  PBC
                           (   1   4   3   4   0   0   0)

     celldm(1)=   6.144681  celldm(2)=   0.000000  celldm(3)=   0.000000
     celldm(4)=   0.000000  celldm(5)=   0.000000  celldm(6)=   0.000000

     crystal axes: (cart. coord. in units of alat)
               a(1) = (   0.866011   0.500025   0.000208 )  
               a(2) = (   0.866011  -0.500025   0.000208 )  
               a(3) = (   0.000695   0.000000   4.675863 )  

     reciprocal axes: (cart. coord. in units 2 pi/alat)
               b(1) = (  0.577360  0.999950 -0.000086 )  
               b(2) = (  0.577360 -0.999950 -0.000086 )  
               b(3) = ( -0.000051  0.000000  0.213864 )  


     PseudoPot. # 1 for Al read from file:
     /home/mainadmin/research/danu/pseudo/Al.pbe-n-kjpaw_psl.1.0.0.UPF
     MD5 check sum: 502b6b27b9c6270cab5dd1084b96fa6d
     Pseudo is Projector augmented-wave + core cor, Zval =  3.0
     Generated using &quot;atomic&quot; code by A. Dal Corso  v.6.3
     Shape of augmentation charge: PSQ
     Using radial grid of 1135 points,  6 beta functions with: 
                l(1) =   0
                l(2) =   0
                l(3) =   1
                l(4) =   1
                l(5) =   2
                l(6) =   2
     Q(r) pseudized with 0 coefficients 


     PseudoPot. # 2 for O  read from file:
     /home/mainadmin/research/danu/pseudo/O.pbe-n-kjpaw_psl.1.0.0.UPF
     MD5 check sum: e99d9cef9b487d1ca56f5b95ecd0fd7a
     Pseudo is Projector augmented-wave + core cor, Zval =  6.0
     Generated using &quot;atomic&quot; code by A. Dal Corso  v.6.3
     Shape of augmentation charge: PSQ
     Using radial grid of 1095 points,  4 beta functions with: 
                l(1) =   0
                l(2) =   0
                l(3) =   1
                l(4) =   1
     Q(r) pseudized with 0 coefficients 


     PseudoPot. # 3 for S  read from file:
     /home/mainadmin/research/danu/pseudo/S.pbe-n-kjpaw_psl.1.0.0.UPF
     MD5 check sum: fb45dfebcf3e72a4e1bd4a866ec2e262
     Pseudo is Projector augmented-wave + core cor, Zval =  6.0
     Generated using &quot;atomic&quot; code by A. Dal Corso  v.6.3
     Shape of augmentation charge: PSQ
     Using radial grid of 1151 points,  6 beta functions with: 
                l(1) =   0
                l(2) =   0
                l(3) =   1
                l(4) =   1
                l(5) =   2
                l(6) =   2
     Q(r) pseudized with 0 coefficients 


     atomic species   valence    mass     pseudopotential
        Al             3.00    26.98100     Al( 1.00)
        O              6.00    15.99900     O ( 1.00)
        S              6.00    32.06500     S ( 1.00)

      2 Sym. Ops. (no inversion) found



   Cartesian axes

     site n.     atom                  positions (alat units)
         1           O   tau(   1) = (   0.5773406   0.0000000   0.0001386  )
         2           Al  tau(   2) = (   0.0000244   0.0000000   0.1504696  )
         3           Al  tau(   3) = (   0.0001437   0.0000000   0.9557440  )
         4           S   tau(   4) = (   0.5775258   0.0000000   1.3359602  )
         5           O   tau(   5) = (   1.1550252   0.0000000   2.2942912  )
         6           Al  tau(   6) = (   0.5776983   0.0000000   2.4432373  )
         7           Al  tau(   7) = (   0.5778303   0.0000000   3.2482908  )
         8           S   tau(   8) = (   1.1552159   0.0000000   3.6290113  )

     number of k points=    91
                       cart. coord. in units 2pi/alat
        k(    1) = (   0.0000000   0.0000000   0.0000000), wk =   0.0219780
        k(    2) = (   0.0192453  -0.0111101  -0.0000029), wk =   0.0219780
        k(    3) = (   0.0384907  -0.0222202  -0.0000057), wk =   0.0219780
        k(    4) = (   0.0577360  -0.0333303  -0.0000086), wk =   0.0219780
        k(    5) = (   0.0769813  -0.0444404  -0.0000114), wk =   0.0219780
        k(    6) = (   0.0962267  -0.0555506  -0.0000143), wk =   0.0219780
        k(    7) = (   0.1154720  -0.0666607  -0.0000172), wk =   0.0219780
        k(    8) = (   0.1347173  -0.0777708  -0.0000200), wk =   0.0219780
        k(    9) = (   0.1539626  -0.0888809  -0.0000229), wk =   0.0219780
        k(   10) = (   0.1732080  -0.0999910  -0.0000257), wk =   0.0219780
        k(   11) = (   0.1924533  -0.1111011  -0.0000286), wk =   0.0219780
        k(   12) = (   0.2116986  -0.1222112  -0.0000314), wk =   0.0219780
        k(   13) = (   0.2309440  -0.1333213  -0.0000343), wk =   0.0219780
        k(   14) = (   0.2501893  -0.1444314  -0.0000372), wk =   0.0219780
        k(   15) = (   0.2694346  -0.1555416  -0.0000400), wk =   0.0219780
        k(   16) = (   0.2886800  -0.1666517  -0.0000429), wk =   0.0219780
        k(   17) = (   0.3079253  -0.1777618  -0.0000457), wk =   0.0219780
        k(   18) = (   0.3271706  -0.1888719  -0.0000486), wk =   0.0219780
        k(   19) = (   0.3464160  -0.1999820  -0.0000515), wk =   0.0219780
        k(   20) = (   0.3656613  -0.2110921  -0.0000543), wk =   0.0219780
        k(   21) = (   0.3849066  -0.2222022  -0.0000572), wk =   0.0219780
        k(   22) = (   0.4041519  -0.2333123  -0.0000600), wk =   0.0219780
        k(   23) = (   0.4233973  -0.2444225  -0.0000629), wk =   0.0219780
        k(   24) = (   0.4426426  -0.2555326  -0.0000657), wk =   0.0219780
        k(   25) = (   0.4618879  -0.2666427  -0.0000686), wk =   0.0219780
        k(   26) = (   0.4811333  -0.2777528  -0.0000715), wk =   0.0219780
        k(   27) = (   0.5003786  -0.2888629  -0.0000743), wk =   0.0219780
        k(   28) = (   0.5196239  -0.2999730  -0.0000772), wk =   0.0219780
        k(   29) = (   0.5388693  -0.3110831  -0.0000800), wk =   0.0219780
        k(   30) = (   0.5581146  -0.3221932  -0.0000829), wk =   0.0219780
        k(   31) = (   0.5773599  -0.3333033  -0.0000858), wk =   0.0219780
        k(   32) = (   0.5773599  -0.3221932  -0.0000858), wk =   0.0219780
        k(   33) = (   0.5773599  -0.3110831  -0.0000858), wk =   0.0219780
        k(   34) = (   0.5773599  -0.2999730  -0.0000858), wk =   0.0219780
        k(   35) = (   0.5773599  -0.2888629  -0.0000858), wk =   0.0219780
        k(   36) = (   0.5773599  -0.2777528  -0.0000858), wk =   0.0219780
        k(   37) = (   0.5773599  -0.2666427  -0.0000858), wk =   0.0219780
        k(   38) = (   0.5773599  -0.2555326  -0.0000858), wk =   0.0219780
        k(   39) = (   0.5773599  -0.2444225  -0.0000858), wk =   0.0219780
        k(   40) = (   0.5773599  -0.2333123  -0.0000858), wk =   0.0219780
        k(   41) = (   0.5773599  -0.2222022  -0.0000858), wk =   0.0219780
        k(   42) = (   0.5773599  -0.2110921  -0.0000858), wk =   0.0219780
        k(   43) = (   0.5773599  -0.1999820  -0.0000858), wk =   0.0219780
        k(   44) = (   0.5773599  -0.1888719  -0.0000858), wk =   0.0219780
        k(   45) = (   0.5773599  -0.1777618  -0.0000858), wk =   0.0219780
        k(   46) = (   0.5773599  -0.1666517  -0.0000858), wk =   0.0219780
        k(   47) = (   0.5773599  -0.1555416  -0.0000858), wk =   0.0219780
        k(   48) = (   0.5773599  -0.1444314  -0.0000858), wk =   0.0219780
        k(   49) = (   0.5773599  -0.1333213  -0.0000858), wk =   0.0219780
        k(   50) = (   0.5773599  -0.1222112  -0.0000858), wk =   0.0219780
        k(   51) = (   0.5773599  -0.1111011  -0.0000858), wk =   0.0219780
        k(   52) = (   0.5773599  -0.0999910  -0.0000858), wk =   0.0219780
        k(   53) = (   0.5773599  -0.0888809  -0.0000858), wk =   0.0219780
        k(   54) = (   0.5773599  -0.0777708  -0.0000858), wk =   0.0219780
        k(   55) = (   0.5773599  -0.0666607  -0.0000858), wk =   0.0219780
        k(   56) = (   0.5773599  -0.0555506  -0.0000858), wk =   0.0219780
        k(   57) = (   0.5773599  -0.0444404  -0.0000858), wk =   0.0219780
        k(   58) = (   0.5773599  -0.0333303  -0.0000858), wk =   0.0219780
        k(   59) = (   0.5773599  -0.0222202  -0.0000858), wk =   0.0219780
        k(   60) = (   0.5773599  -0.0111101  -0.0000858), wk =   0.0219780
        k(   61) = (   0.5773599   0.0000000  -0.0000858), wk =   0.0219780
        k(   62) = (   0.5581146   0.0000000  -0.0000829), wk =   0.0219780
        k(   63) = (   0.5388693   0.0000000  -0.0000800), wk =   0.0219780
        k(   64) = (   0.5196239   0.0000000  -0.0000772), wk =   0.0219780
        k(   65) = (   0.5003786   0.0000000  -0.0000743), wk =   0.0219780
        k(   66) = (   0.4811333   0.0000000  -0.0000715), wk =   0.0219780
        k(   67) = (   0.4618879   0.0000000  -0.0000686), wk =   0.0219780
        k(   68) = (   0.4426426   0.0000000  -0.0000657), wk =   0.0219780
        k(   69) = (   0.4233973   0.0000000  -0.0000629), wk =   0.0219780
        k(   70) = (   0.4041519   0.0000000  -0.0000600), wk =   0.0219780
        k(   71) = (   0.3849066   0.0000000  -0.0000572), wk =   0.0219780
        k(   72) = (   0.3656613   0.0000000  -0.0000543), wk =   0.0219780
        k(   73) = (   0.3464160   0.0000000  -0.0000515), wk =   0.0219780
        k(   74) = (   0.3271706   0.0000000  -0.0000486), wk =   0.0219780
        k(   75) = (   0.3079253   0.0000000  -0.0000457), wk =   0.0219780
        k(   76) = (   0.2886800   0.0000000  -0.0000429), wk =   0.0219780
        k(   77) = (   0.2694346   0.0000000  -0.0000400), wk =   0.0219780
        k(   78) = (   0.2501893   0.0000000  -0.0000372), wk =   0.0219780
        k(   79) = (   0.2309440   0.0000000  -0.0000343), wk =   0.0219780
        k(   80) = (   0.2116986   0.0000000  -0.0000314), wk =   0.0219780
        k(   81) = (   0.1924533   0.0000000  -0.0000286), wk =   0.0219780
        k(   82) = (   0.1732080   0.0000000  -0.0000257), wk =   0.0219780
        k(   83) = (   0.1539626   0.0000000  -0.0000229), wk =   0.0219780
        k(   84) = (   0.1347173   0.0000000  -0.0000200), wk =   0.0219780
        k(   85) = (   0.1154720   0.0000000  -0.0000172), wk =   0.0219780
        k(   86) = (   0.0962267   0.0000000  -0.0000143), wk =   0.0219780
        k(   87) = (   0.0769813   0.0000000  -0.0000114), wk =   0.0219780
        k(   88) = (   0.0577360   0.0000000  -0.0000086), wk =   0.0219780
        k(   89) = (   0.0384907   0.0000000  -0.0000057), wk =   0.0219780
        k(   90) = (   0.0192453   0.0000000  -0.0000029), wk =   0.0219780
        k(   91) = (   0.0000000   0.0000000   0.0000000), wk =   0.0219780

     Dense  grid:    58931 G-vectors     FFT dimensions: (  32,  32, 144)

     Estimated max dynamical RAM per process >      13.52 MB

     Estimated total dynamical RAM >     297.39 MB

     Check: negative core charge=   -0.000004

     The potential is recalculated from file :
     ./work/Al2SO.save/charge-density

     Starting wfcs are   32 randomized atomic wfcs +   40 random wfcs
     Checking if some PAW data can be deallocated... 

     Band Structure Calculation
     Davidson diagonalization with overlap

     ethr =  2.78E-11,  avg # of iterations = 59.7

     total cpu time spent up to now is      242.3 secs

     End of band structure calculation

          k = 0.0000 0.0000 0.0000 (  7385 PWs)   bands (ev):

   -14.5160 -14.2622  -9.0500  -8.7577  -1.4852  -1.0656   0.3352   0.5327
     0.5333   0.7865   0.7869   1.2327   2.9166   4.0347   4.7921   4.7939
     5.0849   5.0868   6.2612   7.3631  10.3162  11.1068  11.4377  12.2347
    12.3060  12.3061  12.5896  12.5897  13.4282  13.8719  13.8741  14.1337
    14.1356  15.4246  15.6726  15.6741  15.9799  15.9815  16.5675  17.0665
    17.8743  17.8766  18.1508  18.1530  19.2661  19.5565  19.7582  20.1907
    20.1965  20.5056  20.5113  20.5713  21.5429  21.6897  22.3612  22.7935
    22.7951  23.0831  23.0868  23.4084  24.6450  24.6513  24.7608  24.9594
    24.9617  26.5096  26.6201  26.6210  27.2082  27.5594  27.5610  28.0652

          k = 0.0192-0.0111-0.0000 (  7390 PWs)   bands (ev):

   -14.5142 -14.2604  -9.0452  -8.7529  -1.4807  -1.0622   0.3387   0.5176
     0.5311   0.7703   0.7848   1.2378   2.9279   4.0407   4.7597   4.7851
     5.0522   5.0779   6.2757   7.3753  10.3176  11.1342  11.4641  12.1922
    12.3123  12.3189  12.5708  12.6018  13.4228  13.8425  13.8779  14.1013
    14.1400  15.3158  15.6560  15.6800  15.9714  15.9947  16.6128  17.1048
    17.8531  17.8824  18.1402  18.1723  19.3023  19.5924  19.7966  20.1623
    20.1882  20.4833  20.5114  20.6069  21.5753  21.7309  22.3673  22.7522
    22.7978  23.0171  23.1013  23.5228  24.5983  24.6177  24.7513  24.9746
    25.0410  26.5002  26.6125  26.6440  27.2260  27.5454  27.5743  28.1110

          k = 0.0385-0.0222-0.0000 (  7394 PWs)   bands (ev):

   -14.5089 -14.2550  -9.0308  -8.7384  -1.4675  -1.0524   0.3483   0.4736
     0.5248   0.7240   0.7784   1.2518   2.9605   4.0582   4.6615   4.7626
     4.9535   5.0553   6.3184   7.4115  10.3206  11.2120  11.5385  12.0949
    12.2967  12.3561  12.5249  12.6384  13.4008  13.7571  13.8936  14.0126
    14.1574  15.1034  15.5572  15.6287  15.9409  16.0764  16.7286  17.1854
    17.8097  17.8868  18.1378  18.2192  19.4033  19.6890  19.8951  20.0977
    20.1742  20.4189  20.5178  20.7021  21.6636  21.8467  22.3668  22.6740
    22.7664  22.9817  23.1338  23.7342  24.4967  24.5425  24.7456  24.9929
    25.2224  26.4394  26.6221  26.7229  27.2365  27.5559  27.6149  28.1839

          k = 0.0577-0.0333-0.0000 (  7401 PWs)   bands (ev):

   -14.5000 -14.2461  -9.0068  -8.7144  -1.4457  -1.0367   0.3567   0.4111
     0.5143   0.6540   0.7679   1.2724   3.0110   4.0846   4.5074   4.7248
     4.7990   5.0174   6.3869   7.4704  10.3225  11.3273  11.6449  11.9637
    12.2282  12.4124  12.4840  12.6991  13.3458  13.6343  13.8976  13.9250
    14.1864  14.8642  15.3683  15.5562  15.8858  16.1793  16.8808  17.2413
    17.7718  17.8702  18.2105  18.2775  19.5459  19.8250  19.9168  20.1069
    20.1698  20.3631  20.5383  20.8369  21.7888  22.0085  22.3137  22.6221
    22.7302  23.0357  23.1878  23.9483  24.3954  24.4701  24.7278  24.9917
    25.4651  26.3478  26.6522  26.8497  27.1776  27.6585  27.6766  28.0848

          k = 0.0770-0.0444-0.0000 (  7407 PWs)   bands (ev):

   -14.4877 -14.2337  -8.9733  -8.6809  -1.4162  -1.0162   0.2967   0.4000
     0.4993   0.5690   0.7530   1.2978   3.0744   4.1152   4.3092   4.6015
     4.6716   4.9639   6.4790   7.5501  10.3207  11.4610  11.7147  11.8543
    12.1049  12.4288  12.5148  12.7780  13.2425  13.4850  13.8141  13.9597
    14.2287  14.6312  15.1605  15.4544  15.8036  16.2595  17.0182  17.2684
    17.7214  17.8674  18.3032  18.4097  19.6739  19.8531  19.9856  20.0439
    20.2347  20.3947  20.6445  21.0045  21.9215  22.1501  22.2527  22.5762
    22.7962  23.0961  23.3167  24.0650  24.3699  24.4293  24.6913  24.9808
    25.7479  26.2685  26.6870  26.9988  27.0802  27.7381  27.7782  27.9514

          k = 0.0962-0.0556-0.0000 (  7395 PWs)   bands (ev):

   -14.4721 -14.2181  -8.9306  -8.6381  -1.3798  -0.9925   0.1901   0.4078
     0.4799   0.4924   0.7335   1.3267   3.1442   4.0690   4.1487   4.3824
     4.6026   4.8945   6.5926   7.6483  10.3130  11.5703  11.5907  11.8826
    11.9970  12.4028  12.5881  12.8547  13.1024  13.3126  13.7793  14.0134
    14.2904  14.4347  14.9701  15.3254  15.6968  16.3084  17.0424  17.3684
    17.6643  17.8715  18.3331  18.6605  19.6613  19.8999  19.9407  20.1380
    20.2751  20.4445  20.8963  21.2157  22.0156  22.1420  22.3303  22.5973
    22.8951  23.1934  23.5289  24.0179  24.3754  24.4817  24.6524  25.0171
    26.0384  26.2298  26.7154  26.9714  27.1483  27.6527  27.8590  27.9970

          k = 0.1155-0.0667-0.0000 (  7402 PWs)   bands (ev):

   -14.4534 -14.1994  -8.8788  -8.5862  -1.3386  -0.9682   0.0710   0.3420
     0.4557   0.4953   0.7094   1.3587   3.2091   3.8246   4.0591   4.2552
     4.5177   4.8090   6.7256   7.7626  10.2975  11.3690  11.6436  11.7878
    12.0672  12.3733  12.6146  12.8916  12.9557  13.1328  13.7969  14.0948
    14.3033  14.3860  14.8173  15.1784  15.5785  16.3309  16.9856  17.4934
    17.6405  17.8554  18.3347  18.9479  19.5884  19.8478  19.9801  20.2422
    20.3251  20.5147  21.2002  21.4914  22.0697  22.1289  22.4096  22.6907
    23.0020  23.3715  23.7420  23.9953  24.3106  24.5565  24.6167  25.1697
    26.1630  26.3710  26.7230  26.8937  27.2301  27.5673  27.9469  28.0409

          k = 0.1347-0.0778-0.0000 (  7405 PWs)   bands (ev):

   -14.4319 -14.1778  -8.8181  -8.5254  -1.2954  -0.9466  -0.0521   0.2488
     0.4267   0.5373   0.6805   1.3931   3.2351   3.5864   3.8288   4.2730
     4.4179   4.7071   6.8761   7.8902  10.2719  11.1519  11.4815  11.8310
    12.1232  12.3658  12.5452  12.8007  12.8732  12.9733  13.8574  14.1649
    14.2949  14.5227  14.7128  15.0330  15.4787  16.3350  16.9108  17.5001
    17.7235  17.8154  18.3112  19.2077  19.5374  19.8026  20.0326  20.3088
    20.3783  20.5886  21.5041  21.8270  22.0906  22.1997  22.4834  22.8050
    23.1457  23.5416  23.7802  24.2152  24.2579  24.5472  24.6717  25.3988
    26.1745  26.5400  26.6873  26.9269  27.2105  27.5979  28.0129  28.1369

          k = 0.1540-0.0889-0.0000 (  7410 PWs)   bands (ev):

   -14.4077 -14.1536  -8.7489  -8.4561  -1.2556  -0.9319  -0.1721   0.1648
     0.3926   0.5893   0.6474   1.4286   3.1215   3.3944   3.6579   4.2804
     4.3309   4.5890   7.0418   8.0281  10.2323  10.9280  11.2712  11.8515
    12.1269  12.3934  12.4026  12.6381  12.7691  12.8859  13.9380  14.1281
    14.4340  14.5563  14.7797  14.9433  15.4491  16.3272  16.8332  17.4440
    17.7428  17.8449  18.2705  19.3117  19.5854  19.8078  20.0732  20.3847
    20.4453  20.6352  21.7348  22.1020  22.2389  22.3544  22.5937  22.9341
    23.2942  23.5170  23.9360  24.1525  24.5461  24.6411  24.7723  25.6430
    26.1902  26.5458  26.6289  27.0368  27.2475  27.6701  28.1267  28.2697

          k = 0.1732-0.1000-0.0000 (  7406 PWs)   bands (ev):

   -14.3812 -14.1270  -8.6716  -8.3786  -1.2273  -0.9285  -0.2799   0.1023
     0.3531   0.6035   0.6538   1.4636   2.8804   3.1556   3.6554   4.1596
     4.3576   4.4554   7.2206   8.1728  10.1717  10.7030  11.0574  11.7857
    12.1178  12.2099  12.4026  12.4916  12.6575  12.8649  14.0021  14.0669
    14.4556  14.4766  14.9431  15.0691  15.5562  16.3135  16.7600  17.3652
    17.6681  17.9356  18.2283  19.2868  19.6596  19.8493  20.0884  20.4699
    20.5586  20.7067  21.7734  22.3031  22.5174  22.6217  22.7736  23.0870
    23.3588  23.4874  23.9847  24.3167  24.6298  24.8869  25.0380  25.8716
    26.1898  26.5177  26.5732  27.0526  27.4517  27.7468  28.2966  28.4155

          k = 0.1925-0.1111-0.0000 (  7408 PWs)   bands (ev):

   -14.3528 -14.0984  -8.5866  -8.2934  -1.2219  -0.9403  -0.3631   0.0689
     0.3081   0.5600   0.7181   1.4942   2.6120   2.8833   3.7221   4.0120
     4.3045   4.3965   7.4103   8.3205  10.0788  10.4825  10.8545  11.6510
    11.9768  12.1345  12.2398  12.4184  12.6530  12.8959  13.9003  14.1210
    14.3050  14.4390  15.0578  15.3489  15.8133  16.3053  16.7082  17.2751
    17.5817  18.0067  18.2059  19.2539  19.6642  19.8921  20.0763  20.5049
    20.6784  20.9175  21.7293  22.4746  22.6517  22.9990  23.0239  23.1917
    23.3590  23.6171  24.0159  24.5896  24.7684  25.0288  25.4230  26.0802
    26.1543  26.4963  26.5640  27.0993  27.6905  27.8210  28.4755  28.5771

          k = 0.2117-0.1222-0.0000 (  7401 PWs)   bands (ev):

   -14.3226 -14.0682  -8.4944  -8.2010  -1.2479  -0.9735  -0.4064   0.0668
     0.2575   0.5095   0.7878   1.5129   2.3496   2.6129   3.8053   3.8494
     4.1417   4.4321   7.6091   8.4666   9.9414  10.2689  10.6777  11.4718
    11.7863  12.0244  12.1183  12.3337  12.7259  12.9736  13.7366  14.1204
    14.1891  14.4244  15.1420  15.5850  16.1199  16.3412  16.7299  17.1944
    17.4916  18.0549  18.2240  19.2389  19.6164  19.9060  20.0670  20.5385
    20.7731  21.1921  21.6919  22.5630  22.7122  23.1434  23.2184  23.3081
    23.6000  23.9031  24.1305  24.7992  24.9662  25.2323  25.7020  26.1587
    26.3018  26.4689  26.5935  27.2254  27.8774  27.9443  28.6009  28.7716

          k = 0.2309-0.1333-0.0000 (  7403 PWs)   bands (ev):

   -14.2912 -14.0367  -8.3957  -8.1021  -1.3037  -1.0329  -0.4012   0.0919
     0.2012   0.4532   0.8597   1.5031   2.1115   2.3639   3.6736   3.8900
     3.9682   4.4656   7.8149   8.6053   9.7598  10.0560  10.5379  11.2638
    11.6120  11.8515  12.0558  12.2586  12.8303  13.0822  13.5595  13.9316
    14.2168  14.4530  15.2138  15.6465  16.2314  16.5791  16.8837  17.1703
    17.4230  18.0878  18.2857  19.2458  19.5374  19.8789  20.0877  20.5956
    20.8497  21.4052  21.7291  22.5692  22.7177  23.0853  23.3316  23.5266
    24.0405  24.1931  24.3833  24.9203  25.1936  25.4920  25.7759  26.2923
    26.4709  26.5563  26.6580  27.4240  27.9085  28.1956  28.6753  28.9762

          k = 0.2502-0.1444-0.0000 (  7402 PWs)   bands (ev):

   -14.2589 -14.0043  -8.2912  -7.9973  -1.3803  -1.1139  -0.3545   0.1332
     0.1420   0.3912   0.9291   1.4368   1.9100   2.1674   3.4864   3.7745
     3.9828   4.4965   8.0258   8.7286   9.5511   9.8362  10.4326  11.0448
    11.4526  11.6999  11.9910  12.1942  12.9551  13.2064  13.3888  13.7526
    14.1948  14.5231  15.2784  15.5559  16.1892  16.8183  17.0576  17.2785
    17.4967  18.1220  18.3848  19.2721  19.4464  19.8444  20.1268  20.6761
    20.9031  21.4807  21.8891  22.5060  22.7289  23.0327  23.4488  23.7169
    24.3783  24.5022  24.7917  25.0303  25.3848  25.6396  25.9059  26.3978
    26.4969  26.7187  26.9647  27.6674  27.9096  28.3766  28.7687  29.1571

          k = 0.2694-0.1555-0.0000 (  7386 PWs)   bands (ev):

   -14.2262 -13.9715  -8.1817  -7.8876  -1.4675  -1.2059  -0.2811   0.0707
     0.1895   0.3246   0.9834   1.3082   1.7325   2.0651   3.2897   3.5774
     4.0656   4.5249   8.2396   8.8236   9.3359   9.6112  10.3515  10.8286
    11.3120  11.5700  11.9277  12.1384  13.0937  13.2142  13.3582  13.5966
    14.1466  14.6016  15.3372  15.3933  16.1021  16.8473  17.1152  17.5461
    17.7701  18.1765  18.5317  19.3085  19.3706  19.8440  20.1708  20.7736
    20.9410  21.4971  22.0614  22.4373  22.7458  23.0119  23.5545  23.8752
    24.5353  24.8897  25.1691  25.2174  25.5491  25.7053  26.0919  26.4577
    26.5797  26.9656  27.3077  27.8782  27.9382  28.4059  28.9484  29.1576

          k = 0.2887-0.1667-0.0000 (  7395 PWs)   bands (ev):

   -14.1934 -13.9386  -8.0683  -7.7739  -1.5574  -1.3002  -0.1960  -0.0024
     0.2234   0.2690   0.9809   1.1781   1.5853   2.0458   3.0853   3.3719
     4.1429   4.5510   8.4525   8.8581   9.1443   9.3905  10.2888  10.6237
    11.1985  11.4544  11.8665  12.0886  13.0796  13.2489  13.4096  13.5546
    14.0893  14.6579  15.1971  15.4041  15.9938  16.8245  17.0844  17.8476
    17.9638  18.3220  18.7189  19.3323  19.3800  19.9101  20.2199  20.8835
    20.9798  21.4944  22.1742  22.4103  22.7595  23.0324  23.6441  24.0026
    24.6472  25.0563  25.4099  25.5455  25.7627  25.8589  26.1785  26.5349
    26.7609  27.2791  27.6026  27.8433  28.1731  28.3560  28.9159  29.1737

          k = 0.3079-0.1778-0.0000 (  7387 PWs)   bands (ev):

   -14.1609 -13.9060  -7.9521  -7.6574  -1.6446  -1.3908  -0.1208  -0.0744
     0.1644   0.2842   0.8760   1.1062   1.5184   2.0674   2.8755   3.1602
     4.2119   4.5757   8.6508   8.7656   9.0239   9.2078  10.2432  10.4356
    11.1150  11.3500  11.8034  12.0412  12.9787  13.3127  13.4142  13.6965
    14.0337  14.6580  15.0084  15.4829  15.8804  16.7896  17.0442  17.9533
    18.0958  18.5666  18.8300  19.4302  19.5020  20.0523  20.2915  21.0040
    21.0372  21.4808  22.2272  22.4314  22.7685  23.0955  23.7175  24.0969
    24.7057  25.1033  25.6193  25.7188  25.8520  26.1643  26.3245  26.6909
    26.9666  27.5483  27.8217  27.8314  28.2532  28.2998  28.8450  29.1605

          k = 0.3272-0.1889-0.0000 (  7373 PWs)   bands (ev):

   -14.1292 -13.8742  -7.8343  -7.5393  -1.7254  -1.4741  -0.1716  -0.0549
     0.0895   0.2826   0.7509   1.0532   1.5430   2.1068   2.6629   2.9444
     4.2700   4.5997   8.5568   8.8023   8.9105   9.1513  10.2059  10.2772
    11.0519  11.2648  11.7319  11.9921  12.9179  13.2392  13.5793  13.8546
    13.9949  14.5675  14.8585  15.5845  15.7769  16.7436  16.9987  17.8896
    18.2497  18.7559  18.8401  19.5296  19.7995  20.2059  20.4483  21.1161
    21.1562  21.4735  22.2620  22.4635  22.7894  23.1855  23.7772  24.1410
    24.7338  25.1358  25.6019  25.8248  25.9555  26.2747  26.6055  26.9664
    27.1732  27.5856  27.7992  27.9988  28.1689  28.4082  28.9497  29.1975

          k = 0.3464-0.2000-0.0001 (  7372 PWs)   bands (ev):

   -14.0988 -13.8437  -7.7164  -7.4211  -1.7971  -1.5478  -0.2601  -0.0757
     0.0262   0.2469   0.6685   1.0362   1.6181   2.1513   2.4526   2.7265
     4.3158   4.6235   8.3453   8.6354   8.9670   9.2224  10.1039  10.2233
    10.9845  11.2192  11.6471  11.9389  12.9019  13.1988  13.7443  13.9300
    14.0572  14.4103  14.7440  15.6571  15.7407  16.6838  16.9447  17.7743
    18.3798  18.7407  18.9345  19.6509  20.0860  20.3275  20.6772  21.2660
    21.3373  21.4980  22.3139  22.4849  22.8407  23.2841  23.8240  24.1205
    24.7404  25.1664  25.4667  25.8023  26.1038  26.2781  26.8434  27.2064
    27.3629  27.5657  27.6612  28.0835  28.2299  28.7120  29.0806  29.4493

          k = 0.3657-0.2111-0.0001 (  7358 PWs)   bands (ev):

   -14.0698 -13.8146  -7.6001  -7.3044  -1.8579  -1.6099  -0.3541  -0.1584
    -0.0471   0.1785   0.6607   1.0630   1.7153   2.1574   2.2862   2.5086
     4.3488   4.6469   8.1325   8.4248   8.9679   9.3773   9.9911  10.2230
    10.8968  11.2216  11.5494  11.8809  12.9294  13.1946  13.8663  13.9654
    14.1187  14.3345  14.6387  15.5957  15.8653  16.6101  16.8819  17.6321
    18.4771  18.6912  19.0138  19.7822  20.2446  20.4813  20.8379  21.4300
    21.5185  21.6717  22.4358  22.4984  22.9225  23.3788  23.8499  24.0447
    24.6901  25.1969  25.3090  25.7189  26.2094  26.2957  26.9802  27.2302
    27.3294  27.6757  27.7703  28.1241  28.4714  29.0087  29.3137  29.7376

          k = 0.3849-0.2222-0.0001 (  7364 PWs)   bands (ev):

   -14.0427 -13.7875  -7.4870  -7.1909  -1.9064  -1.6595  -0.4522  -0.2603
    -0.1421   0.0825   0.7186   1.1166   1.8201   1.9932   2.2740   2.3164
     4.3707   4.6685   7.9250   8.2162   8.9459   9.5240   9.9207  10.2394
    10.7977  11.2516  11.4443  11.8199  12.9952  13.2233  13.9020  13.9563
    14.0916  14.4808  14.5607  15.5341  15.9929  16.5275  16.8143  17.4830
    18.4783  18.7137  19.0692  19.9074  20.3214  20.6140  20.9206  21.4933
    21.6090  22.0479  22.5033  22.7034  23.0248  23.4526  23.8193  23.9686
    24.5834  25.1604  25.2180  25.6887  26.2619  26.3466  27.0336  27.1463
    27.2387  27.8576  27.9901  28.2052  28.7265  29.3047  29.5689  29.8932

          k = 0.4042-0.2333-0.0001 (  7354 PWs)   bands (ev):

   -14.0179 -13.7625  -7.3790  -7.0826  -1.9417  -1.6955  -0.5534  -0.3648
    -0.2431  -0.0199   0.8079   1.1804   1.7791   1.9356   2.0783   2.3613
     4.3843   4.6871   7.7255   8.0148   8.9269   9.5977   9.9223  10.2800
    10.6984  11.2745  11.3492  11.7609  13.0932  13.2786  13.7883  13.9480
    14.1303  14.5724  14.6707  15.4808  16.0731  16.4473  16.7536  17.3514
    18.4012  18.7866  19.1184  20.0121  20.3634  20.7077  20.9601  21.4460
    21.6739  22.2898  22.6274  23.0545  23.1439  23.4713  23.7824  23.9502
    24.4972  25.0846  25.1774  25.7543  26.2859  26.4086  27.0456  27.0748
    27.2014  28.0248  28.1840  28.3391  28.9524  29.5504  29.8081  30.0587

          k = 0.4234-0.2444-0.0001 (  7363 PWs)   bands (ev):

   -13.9954 -13.7400  -7.2780  -6.9813  -1.9631  -1.7176  -0.6569  -0.4640
    -0.3404  -0.1120   0.9057   1.2414   1.5816   1.8539   2.0572   2.4278
     4.3931   4.7016   7.5363   7.8233   8.9202   9.5972   9.9702  10.3556
    10.6120  11.2095  11.3293  11.7116  13.2157  13.3515  13.6405  14.0173
    14.0810  14.6957  14.8602  15.4342  16.0648  16.3704  16.7117  17.2765
    18.3073  18.8419  19.1721  20.0795  20.3733  20.7791  20.9727  21.2973
    21.6962  22.2412  22.9000  23.2005  23.3061  23.5992  23.9228  23.9947
    24.4838  25.0369  25.1507  25.8696  26.3160  26.4747  26.9773  27.1023
    27.2193  28.1774  28.3027  28.5554  29.1377  29.6660  29.9714  30.2873

          k = 0.4426-0.2555-0.0001 (  7343 PWs)   bands (ev):

   -13.9756 -13.7201  -7.1859  -6.8888  -1.9705  -1.7254  -0.7616  -0.5563
    -0.4264  -0.1851   1.0000   1.2640   1.4219   1.6516   2.1582   2.4993
     4.4007   4.7125   7.3595   7.6440   8.9292   9.5767  10.0051  10.4164
    10.5893  11.1151  11.3163  11.6788  13.3443  13.4226  13.5439  14.0084
    14.1239  14.8597  15.0368  15.3954  15.9867  16.2699  16.6656  17.3052
    18.2155  18.8652  19.2248  20.0866  20.3508  20.7895  20.9653  21.1075
    21.5972  22.2120  22.9516  23.3078  23.4533  23.8443  24.0477  24.3343
    24.5256  24.9794  25.1991  26.0123  26.3675  26.5556  26.9003  27.1731
    27.2841  28.2895  28.4309  28.7912  29.2518  29.6377  30.0376  30.3431

          k = 0.4619-0.2666-0.0001 (  7352 PWs)   bands (ev):

   -13.9585 -13.7030  -7.1043  -6.8069  -1.9638  -1.7192  -0.8667  -0.6468
    -0.4907  -0.2346   1.0813   1.1403   1.4115   1.4543   2.2517   2.5730
     4.4099   4.7214   7.1972   7.4794   8.9531   9.5588  10.0230  10.3824
    10.6800  11.0357  11.2754  11.6594  13.3533  13.4988  13.6001  13.9740
    14.2573  15.0238  15.1646  15.3822  15.8901  16.1395  16.5967  17.4339
    18.1348  18.8623  19.2585  20.0050  20.2664  20.6925  20.7874  21.0727
    21.4750  22.2731  22.9434  23.4199  23.6035  24.0295  24.1954  24.5632
    24.7755  24.9305  25.3541  26.1956  26.4266  26.6675  26.8433  27.2727
    27.3823  28.3516  28.5905  28.9984  29.2196  29.5171  29.8983  30.1554

          k = 0.4811-0.2778-0.0001 (  7331 PWs)   bands (ev):

   -13.9443 -13.6887  -7.0347  -6.7370  -1.9435  -1.6993  -0.9709  -0.7401
    -0.5252  -0.2583   0.9576   1.1535   1.2688   1.4534   2.3326   2.6449
     4.4225   4.7304   7.0524   7.3320   8.9880   9.5451  10.0384  10.3337
    10.7507  11.0008  11.2227  11.6440  13.2870  13.5611  13.7581  14.0075
    14.4184  15.1422  15.2036  15.4244  15.8177  15.9961  16.5299  17.6164
    18.0720  18.8404  19.2552  19.7947  20.0934  20.4391  20.6561  21.0711
    21.5137  22.3644  22.9924  23.4991  23.7488  24.1422  24.3331  24.6324
    24.8464  25.1474  25.6370  26.4158  26.4953  26.7940  26.8526  27.3958
    27.5016  28.3840  28.6766  28.9519  29.2575  29.3640  29.6428  30.1596

          k = 0.5004-0.2889-0.0001 (  7340 PWs)   bands (ev):

   -13.9329 -13.6773  -6.9779  -6.6800  -1.9109  -1.6671  -1.0725  -0.8352
    -0.5293  -0.2563   0.7841   1.0803   1.2200   1.4938   2.3989   2.7102
     4.4390   4.7417   6.9282   7.2050   9.0275   9.5304  10.0645  10.3043
    10.7291  10.9986  11.2064  11.6283  13.2316  13.5886  13.9450  14.1131
    14.6008  15.0957  15.2918  15.4451  15.7596  15.9025  16.4881  17.8120
    18.0357  18.8007  19.1926  19.4764  19.8613  20.1820  20.5530  21.1395
    21.6401  22.4467  23.0952  23.5457  23.8810  24.2435  24.3866  24.7139
    24.8334  25.3188  25.9863  26.4816  26.7329  26.8769  27.0063  27.5424
    27.6410  28.3552  28.5010  28.8433  29.2432  29.3731  29.5646  30.1483

          k = 0.5196-0.3000-0.0001 (  7346 PWs)   bands (ev):

   -13.9243 -13.6687  -6.9347  -6.6366  -1.8683  -1.6250  -1.1686  -0.9277
    -0.5071  -0.2312   0.6239   0.9212   1.2586   1.5262   2.4497   2.7638
     4.4578   4.7559   6.8280   7.1019   9.0638   9.5112  10.1111  10.3019
    10.6617  10.9397  11.2577  11.6150  13.1937  13.6065  14.1419  14.2634
    14.7949  14.9997  15.3511  15.4215  15.6246  15.9290  16.4768  17.9577
    18.0605  18.7361  18.9941  19.2261  19.6019  20.0183  20.4524  21.2663
    21.7804  22.4965  23.2329  23.5744  23.9723  24.3362  24.3999  24.8006
    24.8520  25.3650  26.2225  26.5322  26.8999  27.0750  27.1855  27.7333
    27.8178  28.1761  28.3890  28.6709  29.1836  29.4771  29.6060  30.0162

          k = 0.5389-0.3111-0.0001 (  7336 PWs)   bands (ev):

   -13.9184 -13.6627  -6.9048  -6.6066  -1.8205  -1.5778  -1.2545  -1.0112
    -0.4670  -0.1900   0.4862   0.7836   1.2855   1.5490   2.4849   2.8025
     4.4760   4.7714   6.7551   7.0262   9.0897   9.4896  10.1811  10.3257
    10.5822  10.8504  11.3135  11.6086  13.1734  13.6251  14.3391  14.4282
    14.8937  14.9810  15.3724  15.3950  15.4797  15.9464  16.4812  18.0000
    18.1497  18.6475  18.7193  19.1026  19.4205  19.9099  20.3637  21.4122
    21.9059  22.5009  23.3886  23.6088  23.9759  24.3375  24.5169  24.8736
    24.8913  25.3141  26.2892  26.5515  27.0505  27.1854  27.4290  27.9276
    27.9853  28.1966  28.2439  28.5273  29.1164  29.5266  29.6085  29.8468

          k = 0.5581-0.3222-0.0001 (  7339 PWs)   bands (ev):

   -13.9150 -13.6594  -6.8876  -6.5894  -1.7778  -1.5358  -1.3198  -1.0751
    -0.4242  -0.1473   0.3858   0.6837   1.3006   1.5621   2.5050   2.8249
     4.4897   4.7844   6.7118   6.9806   9.1018   9.4722  10.2673  10.3648
    10.4995  10.7670  11.3439  11.6083  13.1671  13.6418  14.5189  14.5737
    14.7943  15.1199  15.3194  15.3554  15.4715  15.8867  16.4789  18.0379
    18.1458  18.5142  18.6103  19.0543  19.3316  19.8390  20.2984  21.5376
    21.9974  22.4711  23.5501  23.6546  23.8745  24.3454  24.6407  24.9294
    24.9426  25.1898  26.2946  26.5239  27.0503  27.3683  27.6603  27.8829
    28.1082  28.2484  28.3104  28.5162  29.0866  29.3348  29.5409  29.8549

          k = 0.5774-0.3333-0.0001 (  7326 PWs)   bands (ev):

   -13.9140 -13.6583  -6.8822  -6.5840  -1.7589  -1.5172  -1.3461  -1.1008
    -0.4039  -0.1273   0.3467   0.6450   1.3052   1.5661   2.5113   2.8320
     4.4949   4.7897   6.6980   6.9658   9.1038   9.4654  10.3264  10.3929
    10.4402  10.7286  11.3518  11.6087  13.1669  13.6491  14.6192  14.6441
    14.7296  15.2108  15.2239  15.3189  15.5691  15.7941  16.4709  18.0767
    18.0996  18.4430  18.6080  19.0482  19.3102  19.8129  20.2718  21.5911
    22.0342  22.4494  23.6810  23.7005  23.7300  24.3530  24.6956  24.9530
    25.0266  25.0550  26.2898  26.5108  27.0300  27.4897  27.7743  27.8018
    28.1130  28.1989  28.3780  28.6591  29.0395  29.2231  29.5057  29.8536

          k = 0.5774-0.3222-0.0001 (  7328 PWs)   bands (ev):

   -13.9142 -13.6585  -6.8835  -6.5852  -1.7643  -1.5225  -1.3389  -1.0938
    -0.4099  -0.1332   0.3573   0.6555   1.3042   1.5652   2.5099   2.8304
     4.4935   4.7882   6.7011   6.9692   9.1041   9.4673  10.3075  10.3799
    10.4627  10.7394  11.3504  11.6090  13.1665  13.6469  14.5848  14.6251
    14.7489  15.1723  15.2601  15.3342  15.5282  15.8395  16.4760  18.0585
    18.1225  18.4582  18.6082  19.0489  19.3117  19.8195  20.2801  21.5760
    22.0227  22.4567  23.6229  23.6862  23.7953  24.3504  24.6780  24.9464
    24.9917  25.1099  26.2927  26.5127  27.0357  27.4538  27.7451  27.8328
    28.1057  28.2077  28.3671  28.6165  29.0570  29.2501  29.5118  29.8461

          k = 0.5774-0.3111-0.0001 (  7332 PWs)   bands (ev):

   -13.9149 -13.6593  -6.8871  -6.5889  -1.7797  -1.5376  -1.3182  -1.0735
    -0.4280  -0.1510   0.3890   0.6868   1.3012   1.5626   2.5057   2.8258
     4.4890   4.7835   6.7100   6.9788   9.1060   9.4733  10.2652  10.3536
    10.5028  10.7696  11.3463  11.6108  13.1651  13.6394  14.4975  14.5787
    14.7803  15.1338  15.2612  15.3780  15.4827  15.9346  16.4952  18.0353
    18.1613  18.4961  18.6111  19.0518  19.3132  19.8355  20.3076  21.5324
    21.9865  22.4774  23.5450  23.6707  23.8692  24.3424  24.6281  24.9287
    24.9828  25.1767  26.3031  26.5147  27.0515  27.3762  27.6805  27.8959
    28.0839  28.1621  28.3983  28.5180  29.0833  29.3103  29.5317  29.8078

          k = 0.5774-0.3000-0.0001 (  7342 PWs)   bands (ev):

   -13.9161 -13.6604  -6.8929  -6.5947  -1.8031  -1.5607  -1.2860  -1.0419
    -0.4567  -0.1795   0.4399   0.7374   1.2964   1.5585   2.4992   2.8187
     4.4815   4.7755   6.7236   6.9937   9.1112   9.4838  10.2136  10.3207
    10.5424  10.8130  11.3403  11.6163  13.1628  13.6261  14.3704  14.5089
    14.8125  15.0945  15.1902  15.4317  15.5244  16.0443  16.5326  18.0167
    18.2048  18.5445  18.6236  19.0581  19.3125  19.8562  20.3561  21.4650
    21.9244  22.5059  23.4762  23.6424  23.9373  24.3282  24.5587  24.9072
    24.9997  25.2390  26.3224  26.5112  27.0744  27.2889  27.6069  27.9434
    28.0029  28.1211  28.3946  28.4713  29.0918  29.3717  29.5681  29.7482

          k = 0.5774-0.2889-0.0001 (  7346 PWs)   bands (ev):

   -13.9177 -13.6620  -6.9006  -6.6024  -1.8321  -1.5893  -1.2449  -1.0017
    -0.4932  -0.2160   0.5071   0.8042   1.2902   1.5532   2.4905   2.8094
     4.4709   4.7642   6.7410   7.0126   9.1212   9.4990  10.1577  10.2843
    10.5757  10.8631  11.3334  11.6276  13.1602  13.6060  14.2116  14.4142
    14.8457  15.0295  15.1224  15.4936  15.6153  16.1580  16.5897  18.0038
    18.2459  18.5915  18.6554  19.0680  19.3114  19.8777  20.4236  21.3808
    21.8385  22.5345  23.4168  23.6084  23.9939  24.3035  24.4907  24.8789
    25.0359  25.2918  26.3507  26.4972  27.1005  27.2064  27.5300  27.8449
    27.9898  28.1104  28.2846  28.5346  29.0760  29.4183  29.6098  29.7047

          k = 0.5774-0.2778-0.0001 (  7358 PWs)   bands (ev):

   -13.9197 -13.6640  -6.9100  -6.6119  -1.8646  -1.6216  -1.1971  -0.9551
    -0.5348  -0.2581   0.5876   0.8844   1.2827   1.5471   2.4801   2.7984
     4.4575   4.7499   6.7606   7.0338   9.1375   9.5193  10.0995  10.2468
    10.6000  10.9131  11.3279  11.6465  13.1585  13.5772  14.0305  14.2924
    14.8749  14.9436  15.0977  15.5612  15.7226  16.2725  16.6657  17.9965
    18.2786  18.6359  18.7057  19.0794  19.3145  19.8991  20.5039  21.2875
    21.7340  22.5563  23.3604  23.5806  24.0301  24.2576  24.4490  24.8431
    25.0850  25.3314  26.3865  26.4700  27.1173  27.1431  27.4336  27.7246
    27.9529  28.1031  28.2098  28.5815  29.0377  29.4545  29.6334  29.7053

          k = 0.5774-0.2666-0.0001 (  7350 PWs)   bands (ev):

   -13.9220 -13.6663  -6.9210  -6.6228  -1.8992  -1.6559  -1.1442  -0.9041
    -0.5790  -0.3037   0.6786   0.9751   1.2743   1.5407   2.4681   2.7860
     4.4413   4.7329   6.7813   7.0561   9.1613   9.5448  10.0401  10.2101
    10.6141  10.9548  11.3290  11.6735  13.1590  13.5346  13.8367  14.1484
    14.8444  14.9229  15.0962  15.6311  15.8375  16.3865  16.7577  17.9946
    18.3009  18.6856  18.7617  19.0885  19.3276  19.9212  20.5863  21.1942
    21.6202  22.5675  23.2989  23.5692  24.0323  24.1916  24.4474  24.8016
    25.1408  25.3561  26.4222  26.4342  27.0757  27.1410  27.3019  27.6400
    27.8829  28.0651  28.1864  28.6045  28.9864  29.4959  29.6419  29.7295

          k = 0.5774-0.2555-0.0001 (  7340 PWs)   bands (ev):

   -13.9245 -13.6689  -6.9331  -6.6350  -1.9347  -1.6912  -1.0876  -0.8511
    -0.6233  -0.3512   0.7777   1.0740   1.2655   1.5347   2.4550   2.7726
     4.4229   4.7135   6.8017   7.0777   9.1934   9.5754   9.9806  10.1754
    10.6178  10.9795  11.3432  11.7079  13.1633  13.4628  13.6438  13.9981
    14.7821  14.9385  15.1167  15.7017  15.9564  16.4993  16.8618  17.9978
    18.3157  18.7379  18.8167  19.0916  19.3548  19.9448  20.6550  21.1119
    21.5112  22.5669  23.2304  23.5738  23.9847  24.1332  24.4746  24.7579
    25.1971  25.3667  26.3811  26.4622  27.0385  27.0887  27.1821  27.5853
    27.8078  28.0295  28.1610  28.6059  28.9367  29.5421  29.6435  29.7589

          k = 0.5774-0.2444-0.0001 (  7340 PWs)   bands (ev):

   -13.9274 -13.6717  -6.9464  -6.6483  -1.9705  -1.7268  -1.0282  -0.8011
    -0.6621  -0.3994   0.8824   1.1775   1.2578   1.5307   2.4410   2.7585
     4.4024   4.6922   6.8204   7.0975   9.2341   9.6101   9.9223  10.1444
    10.6115  10.9817  11.3743  11.7477  13.1730  13.3279  13.4752  13.8667
    14.7303  14.9428  15.1583  15.7719  16.0767  16.6106  16.9735  18.0064
    18.3280  18.7830  18.8703  19.0881  19.3957  19.9695  20.6894  21.0502
    21.4297  22.5557  23.1582  23.5828  23.8936  24.0942  24.5125  24.7179
    25.2458  25.3682  26.3283  26.4811  26.9134  27.0342  27.1297  27.5395
    27.7516  28.0126  28.1047  28.5991  28.8944  29.5477  29.6720  29.8025

          k = 0.5774-0.2333-0.0001 (  7334 PWs)   bands (ev):

   -13.9304 -13.6747  -6.9604  -6.6624  -2.0061  -1.7623  -0.9668  -0.7748
    -0.6747  -0.4473   0.9891   1.2462   1.2883   1.5326   2.4265   2.7441
     4.3804   4.6694   6.8363   7.1145   9.2829   9.6463   9.8672  10.1196
    10.5963  10.9630  11.4188  11.7906  13.1352  13.1894  13.3160  13.7766
    14.6883  14.9382  15.2137  15.8409  16.1968  16.7191  17.0885  18.0206
    18.3419  18.8132  18.9217  19.0798  19.4459  19.9924  20.6823  21.0023
    21.4036  22.5370  23.0865  23.5768  23.7869  24.0673  24.5412  24.6946
    25.2705  25.3744  26.2735  26.4705  26.7256  27.0250  27.0911  27.4763
    27.7369  28.0086  28.0178  28.6013  28.8539  29.5035  29.7415  29.8631

          k = 0.5774-0.2222-0.0001 (  7340 PWs)   bands (ev):

   -13.9336 -13.6780  -6.9751  -6.6772  -2.0411  -1.7971  -0.9050  -0.7947
    -0.6380  -0.4940   1.0887   1.2509   1.3812   1.5521   2.4118   2.7298
     4.3571   4.6455   6.8483   7.1277   9.3382   9.6766   9.8216  10.1043
    10.5738  10.9290  11.4691  11.8338  12.9260  13.1367  13.2137  13.7272
    14.6543  14.9289  15.2760  15.9077  16.3149  16.8230  17.2029  18.0408
    18.3605  18.8272  18.9657  19.0696  19.4996  20.0091  20.6555  20.9574
    21.4374  22.5152  23.0176  23.5307  23.6868  24.0532  24.5419  24.7030
    25.2594  25.3946  26.2185  26.4216  26.5361  26.9880  27.0918  27.4020
    27.7463  27.9127  28.0168  28.6224  28.8081  29.4520  29.8209  29.9373

          k = 0.5774-0.2111-0.0001 (  7336 PWs)   bands (ev):

   -13.9369 -13.6813  -6.9902  -6.6923  -2.0752  -1.8311  -0.8569  -0.8174
    -0.5853  -0.5357   1.1528   1.2849   1.4444   1.6148   2.3972   2.7160
     4.3330   4.6208   6.8557   7.1368   9.3962   9.6821   9.8029  10.1037
    10.5453  10.8847  11.5168  11.8744  12.7176  12.9439  13.2462  13.7053
    14.6273  14.9175  15.3409  15.9710  16.4293  16.9196  17.3129  18.0673
    18.3856  18.8267  18.9960  19.0608  19.5504  20.0160  20.6350  20.9286
    21.5046  22.4963  22.9524  23.4348  23.6011  24.0522  24.5243  24.7321
    25.2257  25.4105  26.1630  26.3274  26.3657  26.9461  27.0825  27.3531
    27.7356  27.8117  28.0475  28.6637  28.7553  29.4111  29.9002  30.0196

          k = 0.5774-0.2000-0.0001 (  7352 PWs)   bands (ev):

   -13.9404 -13.6848  -7.0056  -6.7078  -2.1082  -1.8641  -0.8830  -0.7683
    -0.5909  -0.5125   1.1668   1.3470   1.4938   1.7185   2.3834   2.7030
     4.3084   4.5957   6.8580   7.1417   9.4493   9.6551   9.8198  10.1229
    10.5126  10.8334  11.5532  11.9091  12.5193  12.7497  13.2873  13.7017
    14.6071  14.9053  15.4055  16.0293  16.5380  17.0052  17.4148  18.1003
    18.4175  18.8137  19.0090  19.0586  19.5905  20.0171  20.6347  20.9315
    21.5785  22.4876  22.8901  23.3124  23.5134  24.0558  24.5081  24.7612
    25.1797  25.4031  26.1027  26.1694  26.2608  26.9083  27.0246  27.3444
    27.6797  27.7408  28.1089  28.6969  28.7241  29.3877  29.9744  30.0969

          k = 0.5774-0.1889-0.0001 (  7352 PWs)   bands (ev):

   -13.9439 -13.6883  -7.0211  -6.7233  -2.1400  -1.8958  -0.9230  -0.7054
    -0.6310  -0.4507   1.1619   1.3811   1.5767   1.8384   2.3711   2.6915
     4.2835   4.5705   6.8548   7.1422   9.4824   9.6227   9.8558  10.1636
    10.4775  10.7774  11.5673  11.9333  12.3405  12.5666  13.3365  13.7113
    14.5940  14.8933  15.4679  16.0811  16.6385  17.0754  17.5056  18.1394
    18.4539  18.7912  19.0133  19.0616  19.6122  20.0255  20.6582  20.9693
    21.6421  22.4967  22.8290  23.1832  23.4164  24.0525  24.5020  24.7792
    25.1234  25.3605  25.9955  26.0468  26.1896  26.8681  26.9372  27.3326
    27.6025  27.7085  28.1919  28.6447  28.7946  29.3839  30.0372  30.1217

          k = 0.5774-0.1778-0.0001 (  7352 PWs)   bands (ev):

   -13.9474 -13.6918  -7.0365  -6.7388  -2.1705  -1.9262  -0.9628  -0.6762
    -0.6362  -0.3868   1.1518   1.3878   1.6872   1.9632   2.3614   2.6822
     4.2588   4.5456   6.8464   7.1387   9.4780   9.6047   9.9087  10.2200
    10.4437  10.7186  11.5450  11.9371  12.1937  12.4111  13.3926  13.7315
    14.5886  14.8821  15.5265  16.1249  16.7272  17.1253  17.5830  18.1846
    18.4877  18.7669  19.0248  19.0647  19.6154  20.0531  20.7023  21.0353
    21.6873  22.5272  22.7667  23.0573  23.3138  24.0354  24.5059  24.7799
    25.0519  25.2855  25.8454  25.9649  26.1564  26.8216  26.8425  27.2903
    27.5087  27.7242  28.2861  28.6041  28.8754  29.3986  30.0690  30.1333

          k = 0.5774-0.1667-0.0001 (  7352 PWs)   bands (ev):

   -13.9508 -13.6953  -7.0517  -6.7540  -2.1995  -1.9551  -1.0011  -0.7130
    -0.5742  -0.3230   1.1400   1.3843   1.8053   2.0872   2.3570   2.6767
     4.2344   4.5211   6.8329   7.1312   9.4432   9.5942   9.9792  10.2751
    10.4226  10.6589  11.4765  11.8953  12.0981  12.3049  13.4538  13.7601
    14.5920  14.8725  15.5804  16.1593  16.7990  17.1506  17.6462  18.2360
    18.5047  18.7562  19.0527  19.0694  19.6120  20.0993  20.7607  21.1200
    21.7156  22.5707  22.7035  22.9425  23.2125  24.0034  24.5124  24.7583
    24.9570  25.2003  25.6971  25.8896  26.1459  26.7413  26.7817  27.2283
    27.4022  27.7641  28.3853  28.5854  28.9637  29.4283  30.0562  30.1690

          k = 0.5774-0.1555-0.0001 (  7352 PWs)   bands (ev):

   -13.9543 -13.6987  -7.0665  -6.7688  -2.2269  -1.9825  -1.0376  -0.7496
    -0.5112  -0.2600   1.1275   1.3769   1.9205   2.2034   2.3638   2.6777
     4.2107   4.4973   6.8149   7.1203   9.3967   9.5783  10.0599  10.2897
    10.4444  10.6028  11.3713  11.7911  12.0639  12.2537  13.5178  13.7951
    14.6053  14.8657  15.6285  16.1830  16.8469  17.1493  17.6973  18.2935
    18.4953  18.7684  19.0832  19.1004  19.6182  20.1554  20.8254  21.2145
    21.7366  22.5676  22.6822  22.8452  23.1226  23.9588  24.5081  24.7000
    24.8508  25.1267  25.5533  25.8246  26.1362  26.6438  26.7543  27.1555
    27.2917  27.8012  28.4838  28.5980  29.0582  29.4680  30.0263  30.2061

          k = 0.5774-0.1444-0.0001 (  7344 PWs)   bands (ev):

   -13.9576 -13.7021  -7.0808  -6.7832  -2.2527  -2.0083  -1.0719  -0.7841
    -0.4496  -0.1983   1.1149   1.3679   2.0227   2.2969   2.3970   2.6909
     4.1877   4.4744   6.7931   7.1062   9.3467   9.5554  10.1372  10.2616
    10.4854  10.5738  11.2540  11.6630  12.0601  12.2376  13.5811  13.8347
    14.6295  14.8627  15.6703  16.1954  16.8632  17.1227  17.7415  18.3485
    18.4786  18.7878  19.1219  19.1631  19.6451  20.2118  20.8894  21.3109
    21.7636  22.4807  22.7171  22.7677  23.0611  23.9044  24.4739  24.5790
    24.7826  25.0677  25.4168  25.7696  26.1109  26.5486  26.7529  27.0727
    27.1870  27.8232  28.5662  28.6558  29.1577  29.5113  29.9897  30.2401

          k = 0.5774-0.1333-0.0001 (  7344 PWs)   bands (ev):

   -13.9609 -13.7053  -7.0945  -6.7969  -2.2768  -2.0323  -1.1040  -0.8164
    -0.3899  -0.1386   1.1024   1.3583   2.0981   2.3618   2.4630   2.7269
     4.1657   4.4526   6.7680   7.0894   9.2958   9.5275  10.1821  10.2279
    10.4673  10.6200  11.1516  11.5440  12.0661  12.2370  13.6392  13.8782
    14.6650  14.8657  15.7054  16.1955  16.8430  17.0748  17.7848  18.3633
    18.5058  18.7975  19.1933  19.2369  19.6977  20.2600  20.9479  21.4035
    21.8067  22.3714  22.6864  22.7460  23.0486  23.8424  24.3703  24.4477
    24.7497  25.0190  25.2915  25.7229  26.0653  26.4588  26.7685  26.9787
    27.1054  27.8279  28.6260  28.7563  29.2601  29.5524  29.9502  30.2751

          k = 0.5774-0.1222-0.0001 (  7344 PWs)   bands (ev):

   -13.9639 -13.7084  -7.1075  -6.8099  -2.2992  -2.0546  -1.1338  -0.8463
    -0.3327  -0.0812   1.0903   1.3485   2.1394   2.4205   2.5350   2.7948
     4.1449   4.4320   6.7405   7.0703   9.2450   9.4959  10.1455  10.2240
    10.4349  10.6825  11.0885  11.4548  12.0749  12.2418  13.6873  13.9251
    14.7105  14.8773  15.7333  16.1828  16.7879  17.0109  17.8293  18.3404
    18.5769  18.8022  19.2926  19.3173  19.7759  20.2928  21.0003  21.4896
    21.8674  22.2565  22.6210  22.7356  23.0804  23.7745  24.1950  24.3438
    24.7256  24.9759  25.1839  25.6810  26.0056  26.3769  26.7653  26.8753
    27.0790  27.8185  28.6733  28.8731  29.3626  29.5878  29.9121  30.3163

          k = 0.5774-0.1111-0.0001 (  7348 PWs)   bands (ev):

   -13.9668 -13.7113  -7.1197  -6.8221  -2.3197  -2.0752  -1.1611  -0.8737
    -0.2783  -0.0267   1.0786   1.3388   2.1557   2.4624   2.6178   2.8888
     4.1254   4.4127   6.7114   7.0495   9.1946   9.4617  10.0801  10.1974
    10.3953  10.7306  11.0773  11.4136  12.0838  12.2475  13.7215  13.9746
    14.7626  14.9018  15.7536  16.1570  16.7056  16.9366  17.8694  18.3194
    18.6373  18.8299  19.3924  19.4191  19.8757  20.3060  21.0501  21.5676
    21.9353  22.1443  22.5620  22.7220  23.1254  23.7018  24.0084  24.2310
    24.6956  24.9303  25.1045  25.6402  25.9414  26.3044  26.7162  26.7681
    27.1262  27.7991  28.7012  28.9928  29.4608  29.6201  29.8820  30.3642

          k = 0.5774-0.1000-0.0001 (  7358 PWs)   bands (ev):

   -13.9696 -13.7140  -7.1309  -6.8334  -2.3385  -2.0939  -1.1859  -0.8987
    -0.2272   0.0245   1.0676   1.3295   2.1594   2.4817   2.7164   2.9948
     4.1074   4.3950   6.6814   7.0275   9.1449   9.4254  10.0041  10.1489
    10.3406  10.7510  11.1145  11.4303  12.0919  12.2522  13.7408  14.0238
    14.8163  14.9442  15.7658  16.1184  16.6060  16.8582  17.8933  18.3187
    18.6528  18.9089  19.4751  19.5501  19.9889  20.3022  21.1002  21.6340
    21.9752  22.0592  22.5205  22.7183  23.1596  23.6247  23.8282  24.1118
    24.6512  24.8774  25.0597  25.5968  25.8809  26.2423  26.6411  26.6632
    27.2201  27.7738  28.6976  29.1053  29.5470  29.6605  29.8688  30.4081

          k = 0.5774-0.0889-0.0001 (  7354 PWs)   bands (ev):

   -13.9720 -13.7165  -7.1412  -6.8437  -2.3553  -2.1107  -1.2083  -0.9211
    -0.1800   0.0719   1.0574   1.3208   2.1575   2.4886   2.8205   3.1028
     4.0909   4.3788   6.6513   7.0049   9.0961   9.3873   9.9226  10.0876
    10.2828  10.7388  11.1915  11.4938  12.0985  12.2549  13.7465  14.0684
    14.8695  15.0054  15.7688  16.0690  16.4975  16.7818  17.8913  18.3469
    18.6398  19.0214  19.5555  19.6893  20.0953  20.2999  21.1491  21.6797
    21.9151  22.0657  22.5073  22.7294  23.1672  23.5430  23.6681  23.9946
    24.5895  24.8245  25.0403  25.5491  25.8297  26.1906  26.5612  26.5655
    27.3357  27.7456  28.6565  29.1958  29.6139  29.7254  29.8790  30.4357

          k = 0.5774-0.0778-0.0001 (  7360 PWs)   bands (ev):

   -13.9743 -13.7188  -7.1504  -6.8530  -2.3702  -2.1256  -1.2280  -0.9410
    -0.1371   0.1150   1.0481   1.3127   2.1531   2.4900   2.9227   3.2073
     4.0760   4.3643   6.6220   6.9824   9.0483   9.3477   9.8408  10.0191
    10.2334  10.7074  11.2934  11.5838  12.1036  12.2553  13.7407  14.1050
    14.9251  15.0798  15.7611  16.0126  16.3870  16.7119  17.8651  18.3999
    18.6178  19.1463  19.6337  19.8307  20.1399  20.3564  21.1904  21.6804
    21.8628  22.0747  22.5210  22.7560  23.1336  23.4575  23.5471  23.8879
    24.5147  24.7757  25.0328  25.4987  25.7898  26.1474  26.4783  26.4885
    27.4609  27.7174  28.5812  29.2467  29.6759  29.8099  29.9148  30.4558

          k = 0.5774-0.0667-0.0001 (  7366 PWs)   bands (ev):

   -13.9763 -13.7208  -7.1586  -6.8611  -2.3832  -2.1386  -1.2452  -0.9582
    -0.0988   0.1534   1.0397   1.3054   2.1479   2.4890   3.0185   3.3046
     4.0629   4.3515   6.5942   6.9606   9.0022   9.3073   9.7636   9.9505
    10.1948  10.6705  11.4060  11.6844  12.1070  12.2532  13.7256  14.1317
    14.9860  15.1599  15.7409  15.9555  16.2801  16.6510  17.8239  18.4654
    18.5955  19.2742  19.7079  19.9661  20.1232  20.4781  21.2155  21.6248
    21.8633  22.0674  22.5407  22.7931  23.0575  23.3687  23.4819  23.7988
    24.4338  24.7268  25.0279  25.4501  25.7603  26.1102  26.4019  26.4334
    27.5858  27.6940  28.4816  29.2536  29.7406  29.8924  29.9836  30.4796

          k = 0.5774-0.0556-0.0001 (  7366 PWs)   bands (ev):

   -13.9780 -13.7225  -7.1655  -6.8681  -2.3942  -2.1496  -1.2598  -0.9728
    -0.0656   0.1868   1.0324   1.2990   2.1427   2.4871   3.1048   3.3920
     4.0516   4.3406   6.5688   6.9404   8.9589   9.2675   9.6946   9.8883
    10.1653  10.6357  11.5203  11.7849  12.1088  12.2487  13.7034  14.1487
    15.0523  15.2392  15.7081  15.9032  16.1813  16.5996  17.7765  18.5230
    18.5864  19.3990  19.7756  20.0386  20.1484  20.6164  21.2172  21.5529
    21.8835  22.0582  22.5371  22.8251  22.9732  23.2802  23.4672  23.7317
    24.3517  24.6739  25.0196  25.4079  25.7393  26.0770  26.3348  26.4033
    27.6481  27.7336  28.3700  29.2283  29.7886  29.9653  30.0909  30.5097

          k = 0.5774-0.0444-0.0001 (  7360 PWs)   bands (ev):

   -13.9794 -13.7239  -7.1713  -6.8739  -2.4033  -2.1586  -1.2717  -0.9848
    -0.0379   0.2146   1.0263   1.2937   2.1381   2.4849   3.1791   3.4673
     4.0422   4.3316   6.5465   6.9224   8.9196   9.2301   9.6364   9.8363
    10.1428  10.6059  11.6302  11.8765  12.1090  12.2424  13.6770  14.1578
    15.1212  15.3112  15.6686  15.8574  16.0948  16.5575  17.7291  18.5294
    18.6283  19.5137  19.8331  20.0170  20.2634  20.7497  21.1968  21.4900
    21.8978  22.0597  22.4939  22.8151  22.9318  23.2095  23.4821  23.6916
    24.2702  24.6172  25.0058  25.3732  25.7259  26.0486  26.2771  26.3982
    27.6327  27.8458  28.2595  29.1846  29.8110  30.0328  30.2217  30.5450

          k = 0.5774-0.0333-0.0001 (  7370 PWs)   bands (ev):

   -13.9805 -13.7250  -7.1758  -6.8784  -2.4103  -2.1657  -1.2810  -0.9942
    -0.0160   0.2367   1.0214   1.2894   2.1342   2.4828   3.2394   3.5283
     4.0348   4.3245   6.5282   6.9075   8.8863   9.1975   9.5905   9.7961
    10.1261  10.5824  11.7313  11.9496  12.1092  12.2355  13.6496  14.1614
    15.1892  15.3674  15.6350  15.8149  16.0238  16.5246  17.6867  18.5153
    18.6861  19.6089  19.8767  19.9977  20.3779  20.8607  21.1663  21.4476
    21.8975  22.0657  22.4333  22.7635  22.9134  23.1812  23.4997  23.6917
    24.1887  24.5607  24.9889  25.3445  25.7194  26.0270  26.2296  26.4113
    27.6157  27.9417  28.1685  29.1328  29.8167  30.0887  30.3612  30.5853

          k = 0.5774-0.0222-0.0001 (  7376 PWs)   bands (ev):

   -13.9813 -13.7258  -7.1790  -6.8816  -2.4154  -2.1707  -1.2877  -1.0008
    -0.0001   0.2526   1.0179   1.2862   2.1313   2.4813   3.2839   3.5733
     4.0294   4.3193   6.5145   6.8962   8.8608   9.1721   9.5576   9.7678
    10.1146  10.5655  11.8196  11.9910  12.1140  12.2298  13.6254  14.1617
    15.2522  15.3949  15.6245  15.7725  15.9710  16.5009  17.6531  18.5024
    18.7341  19.6729  19.9071  19.9975  20.4711  20.9327  21.1375  21.4402
    21.8875  22.0443  22.4087  22.6943  22.8847  23.1924  23.4996  23.7403
    24.1051  24.5117  24.9732  25.3210  25.7182  26.0128  26.1937  26.4325
    27.6026  27.9782  28.1380  29.0823  29.8151  30.1280  30.4895  30.6383

          k = 0.5774-0.0111-0.0001 (  7374 PWs)   bands (ev):

   -13.9818 -13.7263  -7.1809  -6.8836  -2.4184  -2.1737  -1.2917  -1.0048
     0.0095   0.2622   1.0158   1.2844   2.1295   2.4803   3.3111   3.6009
     4.0261   4.3162   6.5060   6.8893   8.8448   9.1560   9.5378   9.7512
    10.1078  10.5554  11.8908  11.9933  12.1248  12.2271  13.6085  14.1610
    15.3064  15.3885  15.6441  15.7290  15.9385  16.4865  17.6317  18.4941
    18.7654  19.7027  19.9307  20.0064  20.5310  20.9704  21.1078  21.4690
    21.8737  21.9953  22.4419  22.6148  22.8614  23.2132  23.4904  23.8178
    24.0191  24.4783  24.9625  25.3049  25.7193  26.0050  26.1711  26.4511
    27.5945  27.9545  28.1677  29.0443  29.8122  30.1506  30.5666  30.7302

          k = 0.5774 0.0000-0.0001 (  7374 PWs)   bands (ev):

   -13.9820 -13.7265  -7.1816  -6.8842  -2.4194  -2.1747  -1.2930  -1.0062
     0.0127   0.2655   1.0150   1.2837   2.1289   2.4799   3.3203   3.6102
     4.0250   4.3152   6.5032   6.8869   8.8393   9.1505   9.5312   9.7457
    10.1056  10.5520  11.9280  11.9788  12.1305  12.2267  13.6025  14.1606
    15.3394  15.3694  15.6734  15.6941  15.9275  16.4816  17.6243  18.4912
    18.7763  19.7099  19.9409  20.0109  20.5511  20.9865  21.0895  21.4908
    21.8647  21.9702  22.4862  22.5579  22.8532  23.2224  23.4858  23.8797
    23.9563  24.4665  24.9587  25.2991  25.7201  26.0026  26.1633  26.4584
    27.5918  27.9401  28.1847  29.0299  29.8109  30.1579  30.5868  30.8188

          k = 0.5581 0.0000-0.0001 (  7380 PWs)   bands (ev):

   -13.9836 -13.7281  -7.1896  -6.8923  -2.4139  -2.1692  -1.2788  -0.9919
     0.0140   0.2668   1.0048   1.2771   2.1192   2.4713   3.3234   3.6133
     4.0307   4.3261   6.5098   6.8982   8.8445   9.1548   9.5376   9.7510
    10.1078  10.5548  11.9315  11.9549  12.1392  12.2300  13.6102  14.1743
    15.3342  15.3706  15.6666  15.6946  15.9380  16.4992  17.6191  18.4960
    18.7670  19.7040  19.9142  20.0132  20.5396  20.9778  21.0171  21.4295
    21.8126  21.9804  22.3947  22.5523  22.8662  23.2736  23.5609  23.8727
    24.0221  24.5257  24.9714  25.3476  25.7090  25.9906  26.1694  26.4783
    27.5867  27.9439  28.1893  29.0153  29.7618  30.1703  30.5306  30.7089

          k = 0.5389 0.0000-0.0001 (  7366 PWs)   bands (ev):

   -13.9883 -13.7328  -7.2135  -6.9163  -2.3975  -2.1527  -1.2364  -0.9495
     0.0179   0.2707   0.9745   1.2577   2.0906   2.4469   3.3326   3.6225
     4.0476   4.3558   6.5308   6.9319   8.8592   9.1672   9.5566   9.7666
    10.1149  10.5634  11.8959  11.9417  12.1549  12.2401  13.6312  14.2162
    15.3159  15.3741  15.6553  15.6960  15.9651  16.5486  17.6043  18.5104
    18.7394  19.6858  19.8421  20.0086  20.4989  20.8220  20.9498  21.2724
    21.6844  21.9912  22.2162  22.5392  22.8609  23.3909  23.7560  23.8675
    24.1964  24.6742  25.0151  25.4814  25.6809  25.9616  26.1880  26.5272
    27.5704  27.9543  28.2019  28.9743  29.6400  30.1816  30.3655  30.5385

          k = 0.5196 0.0000-0.0001 (  7374 PWs)   bands (ev):

   -13.9962 -13.7407  -7.2523  -6.9553  -2.3703  -2.1255  -1.1669  -0.8800
     0.0244   0.2772   0.9256   1.2262   2.0444   2.4103   3.3479   3.6378
     4.0743   4.3973   6.5690   6.9876   8.8818   9.1854   9.5887   9.7918
    10.1289  10.5780  11.8171  11.9587  12.1682  12.2568  13.6601  14.2874
    15.2805  15.3795  15.6552  15.6980  16.0019  16.6224  17.5822  18.5335
    18.6936  19.6550  19.7246  19.9861  20.4115  20.5480  20.8970  21.0767
    21.5131  21.9808  22.0648  22.5223  22.8326  23.5159  23.8850  24.0141
    24.4278  24.8516  25.1053  25.6500  25.6761  25.9280  26.2205  26.5847
    27.5410  27.9685  28.2207  28.9113  29.4835  30.1541  30.1542  30.3846

          k = 0.5004 0.0000-0.0001 (  7359 PWs)   bands (ev):

   -14.0070 -13.7516  -7.3048  -7.0079  -2.3327  -2.0877  -1.0721  -0.7851
     0.0334   0.2862   0.8605   1.1842   1.9828   2.3663   3.3691   3.6591
     4.1078   4.4421   6.6281   7.0649   8.9091   9.2061   9.6341   9.8255
    10.1525  10.5993  11.7272  11.9824  12.1790  12.2801  13.6923  14.3877
    15.2285  15.3863  15.6735  15.7005  16.0449  16.7109  17.5568  18.5619
    18.6301  19.5536  19.6105  19.9373  20.2318  20.2596  20.8038  20.8974
    21.3438  21.9086  22.0229  22.5028  22.8034  23.6203  23.9313  24.2855
    24.6572  24.9919  25.2664  25.6378  25.9030  25.9038  26.2694  26.6344
    27.4950  27.9821  28.2444  28.8245  29.3285  29.9646  30.0571  30.2384

          k = 0.4811 0.0000-0.0001 (  7359 PWs)   bands (ev):

   -14.0207 -13.7653  -7.3693  -7.0727  -2.2850  -2.0398  -0.9543  -0.6672
     0.0449   0.2977   0.7827   1.1332   1.9088   2.3185   3.3964   3.6863
     4.1437   4.4828   6.7114   7.1635   8.9364   9.2254   9.6932   9.8676
    10.1890  10.6279  11.6322  12.0125  12.1899  12.3097  13.7261  14.5135
    15.1654  15.3935  15.7030  15.7085  16.0924  16.8047  17.5348  18.5491
    18.5880  19.3251  19.5499  19.8336  19.9200  20.0462  20.6472  20.7709
    21.2338  21.8583  22.0065  22.4806  22.7922  23.6986  24.0014  24.5263
    24.8240  25.0836  25.4769  25.6644  25.9124  26.1179  26.3500  26.6702
    27.4286  27.9893  28.2754  28.7009  29.2132  29.8222  29.8587  30.0686

          k = 0.4619 0.0000-0.0001 (  7361 PWs)   bands (ev):

   -14.0370 -13.7817  -7.4440  -7.1477  -2.2278  -1.9823  -0.8167  -0.5297
     0.0586   0.3115   0.6967   1.0756   1.8262   2.2694   3.4294   3.7194
     4.1772   4.5146   6.8208   7.2826   8.9569   9.2411   9.7654   9.9196
    10.2403  10.6647  11.5374  12.0489  12.2046  12.3454  13.7625  14.6586
    15.0977  15.3999  15.7048  15.7551  16.1435  16.8940  17.5247  18.4493
    18.5968  19.0480  19.4626  19.5253  19.7795  19.8023  20.4478  20.7049
    21.1935  21.8392  21.9880  22.4557  22.8113  23.7544  24.0831  24.6782
    24.9127  25.1491  25.6908  25.7034  25.9960  26.2398  26.5098  26.7015
    27.3391  27.9795  28.3206  28.5417  29.1373  29.5768  29.7279  29.8412

          k = 0.4426 0.0000-0.0001 (  7368 PWs)   bands (ev):

   -14.0558 -13.8005  -7.5270  -7.2310  -2.1617  -1.9156  -0.6639  -0.3772
     0.0746   0.3275   0.6082   1.0145   1.7386   2.2203   3.4680   3.7581
     4.2035   4.5355   6.9563   7.4213   8.9616   9.2541   9.8487   9.9849
    10.3057  10.7107  11.4483  12.0911  12.2259  12.3869  13.8041  14.8118
    15.0332  15.4041  15.7053  15.8085  16.1968  16.9699  17.5346  18.3261
    18.5662  18.7424  19.1799  19.3081  19.5943  19.6636  20.2655  20.6867
    21.1930  21.8137  21.9916  22.4277  22.8632  23.7905  24.1644  24.6748
    24.9886  25.1965  25.6990  25.8816  26.1523  26.2729  26.7072  26.7519
    27.2293  27.9265  28.3815  28.3902  28.9781  29.3422  29.6188  29.6528

          k = 0.4234 0.0000-0.0001 (  7381 PWs)   bands (ev):

   -14.0767 -13.8216  -7.6165  -7.3207  -2.0873  -1.8405  -0.5028  -0.2170
     0.0927   0.3456   0.5265   0.9550   1.6495   2.1720   3.5121   3.8023
     4.2188   4.5461   7.1157   7.5772   8.9429   9.2680   9.9402  10.0665
    10.3825  10.7664  11.3719  12.1389  12.2561  12.4339  13.8536  14.9072
    15.0324  15.4043  15.7033  15.8640  16.2509  17.0266  17.5661  18.1626
    18.4354  18.4765  18.8490  19.0608  19.4688  19.5440  20.1517  20.7012
    21.2089  21.7604  22.0349  22.3956  22.9424  23.8060  24.2364  24.5566
    25.0512  25.2274  25.6363  26.0202  26.2723  26.3168  26.8378  26.8434
    27.1258  27.7963  28.2277  28.4913  28.6607  29.1905  29.4188  29.5605

          k = 0.4042 0.0000-0.0001 (  7370 PWs)   bands (ev):

   -14.0996 -13.8445  -7.7106  -7.4152  -2.0053  -1.7575  -0.3466  -0.0630
     0.1127   0.3657   0.4690   0.9055   1.5622   2.1247   3.5614   3.8517
     4.2202   4.5486   7.2952   7.7464   8.8998   9.2834  10.0377  10.1639
    10.4672  10.8309  11.3178  12.1916  12.2966  12.4858  13.9133  14.8601
    15.1726  15.3984  15.6975  15.9174  16.3033  17.0627  17.6067  17.9257
    18.1556  18.3351  18.5592  18.7830  19.3812  19.4250  20.1285  20.7373
    21.2281  21.6947  22.1040  22.3578  23.0396  23.7989  24.2927  24.3799
    25.0832  25.2395  25.5215  26.0451  26.2987  26.4473  26.8034  26.9464
    27.0989  27.5920  28.0038  28.3515  28.6127  29.0078  29.2128  29.4687

          k = 0.3849 0.0000-0.0001 (  7371 PWs)   bands (ev):

   -14.1241 -13.8691  -7.8077  -7.5126  -1.9168  -1.6677  -0.2227   0.0610
     0.1345   0.3874   0.4697   0.8812   1.4806   2.0793   3.6157   3.9060
     4.2064   4.5454   7.4892   7.9209   8.8417   9.2969  10.1416  10.2708
    10.5587  10.8988  11.3001  12.2487  12.3479  12.5420  13.9851  14.7918
    15.3240  15.3842  15.6859  15.9632  16.3486  17.0757  17.6251  17.6268
    17.8820  18.1911  18.3386  18.5233  19.3072  19.3104  20.1839  20.7884
    21.2408  21.6337  22.1849  22.3115  23.1423  23.7692  24.1685  24.3292
    25.0820  25.2266  25.3825  25.9624  26.3236  26.5275  26.6608  27.0291
    27.0508  27.3066  27.7736  28.0858  28.7030  28.8313  28.9849  29.4398

          k = 0.3657 0.0000-0.0001 (  7383 PWs)   bands (ev):

   -14.1499 -13.8950  -7.9065  -7.6117  -1.8230  -1.5721  -0.1708   0.1407
     0.1577   0.4107   0.5546   0.9037   1.4116   2.0370   3.6746   3.9650
     4.1776   4.5384   7.6892   8.0835   8.7906   9.3045  10.2530  10.3761
    10.6601  10.9617  11.3345  12.3093  12.4099  12.6018  14.0695  14.7209
    15.3595  15.4592  15.6658  15.9901  16.3736  17.0555  17.3066  17.5881
    17.5988  18.1027  18.1825  18.3251  19.2037  19.2454  20.2902  20.8499
    21.2403  21.5894  22.2534  22.2681  23.2319  23.7250  23.9355  24.3445
    25.0261  25.1814  25.2689  25.8312  26.2130  26.5465  26.5538  26.8048
    26.9663  27.1327  27.6320  27.8683  28.6616  28.6938  28.7541  29.5357

          k = 0.3464 0.0000-0.0001 (  7389 PWs)   bands (ev):

   -14.1767 -13.9219  -8.0055  -7.7110  -1.7254  -1.4721  -0.1931   0.1791
     0.1823   0.4354   0.6985   0.9787   1.3733   2.0006   3.7377   4.0283
     4.1356   4.5282   7.8792   8.1999   8.7901   9.3068  10.3718  10.4694
    10.7769  11.0213  11.4246  12.3725  12.4820  12.6641  14.1663  14.6504
    15.3221  15.5692  15.6335  15.9777  16.3480  16.9928  17.0080  17.2890
    17.5537  18.0532  18.0672  18.2455  19.1073  19.2001  20.4191  20.9179
    21.2269  21.5667  22.1795  22.3455  23.2765  23.6881  23.6903  24.3406
    24.9026  25.0997  25.2142  25.6582  25.9545  26.3560  26.4970  26.5291
    26.7454  27.1854  27.4843  27.7178  28.4484  28.6022  28.6036  29.4057

          k = 0.3272 0.0000-0.0000 (  7402 PWs)   bands (ev):

   -14.2042 -13.9495  -8.1037  -7.8094  -1.6260  -1.3695  -0.2516   0.1752
     0.2080   0.4610   0.8570   1.0642   1.4119   1.9755   3.8047   4.0829
     4.0954   4.5149   8.0110   8.2611   8.8835   9.3130  10.4891  10.5544
    10.9101  11.0932  11.5573  12.4369  12.5633  12.7277  14.2715  14.5843
    15.2696  15.5843  15.6389  15.9120  16.2310  16.6940  16.9876  17.0014
    17.5447  17.9794  18.0284  18.2702  19.0230  19.1759  20.5419  20.9887
    21.2122  21.5629  22.0864  22.4099  23.2455  23.4414  23.6786  24.3228
    24.7574  24.9809  25.1852  25.4185  25.6212  26.0062  26.2649  26.4583
    26.6190  27.2106  27.3512  27.5611  28.2108  28.4839  28.5388  29.2563

          k = 0.3079 0.0000-0.0000 (  7395 PWs)   bands (ev):

   -14.2321 -13.9774  -8.2001  -7.9060  -1.5275  -1.2671  -0.3190   0.1447
     0.2344   0.4876   0.9376   1.1750   1.5526   1.9751   3.8751   4.0219
     4.1659   4.4985   8.0014   8.3491   9.0450   9.3477  10.5686  10.6707
    11.0539  11.1909  11.7176  12.5009  12.6528  12.7911  14.3640  14.5433
    15.1996  15.5132  15.5900  15.8621  16.0268  16.4177  16.7374  17.0312
    17.5906  17.9149  18.0400  18.3423  18.9516  19.1746  20.6276  21.0574
    21.2077  21.5781  21.9720  22.4556  23.1549  23.1971  23.6706  24.2865
    24.6234  24.8129  25.1178  25.1557  25.2595  25.6917  26.0710  26.3467
    26.4605  27.2155  27.2620  27.3745  28.0033  28.3687  28.4871  29.1378

          k = 0.2887 0.0000-0.0000 (  7401 PWs)   bands (ev):

   -14.2601 -14.0055  -8.2937  -7.9999  -1.4340  -1.1690  -0.3801   0.1054
     0.2614   0.5146   0.9157   1.3325   1.7389   2.0311   3.9483   3.9548
     4.2392   4.4788   7.8975   8.4298   9.2209   9.4504  10.6178  10.8179
    11.2022  11.3165  11.8957  12.5625  12.7497  12.8523  14.3709  14.5976
    15.1093  15.3832  15.4162  15.7304  15.9417  16.1704  16.5063  17.1209
    17.6820  17.8720  18.0637  18.4518  18.8930  19.1929  20.6561  21.1167
    21.2004  21.6243  21.8374  22.4820  22.9671  23.0421  23.6277  24.1676
    24.5116  24.5674  24.8363  24.9409  25.1166  25.4483  25.8970  26.2006
    26.2585  27.1232  27.2093  27.2532  27.8404  28.2678  28.4022  29.0489

          k = 0.2694 0.0000-0.0000 (  7402 PWs)   bands (ev):

   -14.2878 -14.0333  -8.3840  -8.0903  -1.3505  -1.0811  -0.4231   0.0697
     0.2887   0.5419   0.8630   1.4489   1.9323   2.1823   3.8838   4.0237
     4.3148   4.4560   7.7605   8.4474   9.3951   9.6308  10.6618  10.9787
    11.3551  11.4611  12.0857  12.6193  12.8532  12.9088  14.3165  14.7102
    14.9964  15.1202  15.2929  15.4537  15.9573  16.0181  16.3150  17.2321
    17.7852  17.8493  18.0973  18.5976  18.8462  19.2220  20.6313  21.1545
    21.1588  21.6878  21.7053  22.4968  22.7634  22.9304  23.5432  23.8794
    24.2291  24.4229  24.5997  24.7869  25.0653  25.2649  25.7103  26.0278
    26.0654  26.9288  27.1898  27.2012  27.7215  28.1831  28.2809  28.9697

          k = 0.2502 0.0000-0.0000 (  7415 PWs)   bands (ev):

   -14.3150 -14.0605  -8.4701  -8.1766  -1.2842  -1.0113  -0.4363   0.0464
     0.3159   0.5691   0.8031   1.4946   2.1500   2.4071   3.8107   4.1006
     4.3918   4.4300   7.6102   8.4044   9.5810   9.8499  10.7119  11.1483
    11.5144  11.6121  12.2832  12.6681  12.9576  12.9619  14.2512  14.7236
    14.8623  14.9146  15.1492  15.2151  15.7817  16.1150  16.1642  17.3493
    17.8424  17.8447  18.1826  18.7691  18.8091  19.2516  20.5634  21.0807
    21.1525  21.5340  21.7903  22.5085  22.6014  22.8340  23.3965  23.5282
    23.8435  24.3515  24.3710  24.7086  25.0037  25.1512  25.4766  25.8372
    25.9481  26.7572  27.0986  27.1976  27.6326  28.1129  28.1490  28.8881

          k = 0.2309 0.0000-0.0000 (  7411 PWs)   bands (ev):

   -14.3413 -14.0870  -8.5516  -8.2583  -1.2420  -0.9650  -0.4112   0.0423
     0.3427   0.5960   0.7427   1.4958   2.3949   2.6619   3.7383   4.1782
     4.4014   4.4696   7.4549   8.3225   9.7710  10.0794  10.7787  11.3231
    11.6765  11.7625  12.4837  12.7056  12.9951  13.0719  14.1797  14.4869
    14.7139  14.7694  14.9947  15.2023  15.6440  16.0495  16.2242  17.4609
    17.8350  17.8551  18.3336  18.7788  18.9500  19.2750  20.4544  20.9891
    21.0902  21.3901  21.8435  22.4864  22.4968  22.7787  23.0555  23.2984
    23.5307  24.1405  24.2863  24.5659  24.9391  25.0422  25.2907  25.6378
    25.9083  26.6213  26.9839  27.2011  27.5466  28.0197  28.0537  28.8060

          k = 0.2117 0.0000-0.0000 (  7427 PWs)   bands (ev):

   -14.3666 -14.1123  -8.6280  -8.3349  -1.2278  -0.9406  -0.3498   0.0615
     0.3689   0.6222   0.6843   1.4772   2.6519   2.9249   3.6712   4.2557
     4.3703   4.5473   7.2993   8.2194   9.9446  10.3086  10.8734  11.4972
    11.8263  11.9164  12.6807  12.7280  13.0176  13.1738  14.0869  14.2348
    14.5623  14.5723  14.8402  15.3484  15.5419  15.9644  16.3427  17.5545
    17.7963  17.8764  18.5149  18.7514  19.1143  19.2966  20.3122  20.9023
    20.9683  21.2582  21.8600  22.3708  22.4562  22.6151  22.7861  23.0717
    23.4001  23.9201  24.2125  24.3715  24.7664  24.8838  25.2947  25.4378
    25.9103  26.5219  26.8806  27.2104  27.4463  27.8768  28.0027  28.7320

          k = 0.1925 0.0000-0.0000 (  7423 PWs)   bands (ev):

   -14.3905 -14.1363  -8.6989  -8.4059  -1.2380  -0.9324  -0.2627   0.1048
     0.3941   0.6294   0.6475   1.4503   2.9055   3.1805   3.6230   4.3321
     4.3372   4.6238   7.1467   8.1063  10.0835  10.5346  11.0034  11.6596
    11.9479  12.0800  12.7323  12.8604  13.0216  13.2474  13.9488  14.0416
    14.4188  14.4569  14.6954  15.4714  15.5249  15.9039  16.4678  17.6118
    17.7535  17.9039  18.6987  18.7226  19.2038  19.3521  20.1707  20.8161
    20.8165  21.1273  21.8558  22.1660  22.2732  22.4710  22.5258  23.0550
    23.3594  23.7302  24.1169  24.1694  24.4565  24.8496  25.2450  25.3108
    25.9347  26.4494  26.8331  27.2198  27.3292  27.7057  27.9581  28.6626

          k = 0.1732 0.0000-0.0000 (  7415 PWs)   bands (ev):

   -14.4129 -14.1588  -8.7639  -8.4711  -1.2644  -0.9363  -0.1607   0.1688
     0.4181   0.5789   0.6715   1.4205   3.1252   3.3955   3.6463   4.3033
     4.4064   4.6982   6.9999   7.9903  10.1811  10.7574  11.1648  11.7901
    12.0463  12.2385  12.7164  12.9935  13.0051  13.2690  13.8141  13.9378
    14.2917  14.4509  14.5673  15.4293  15.7058  15.8649  16.5957  17.6070
    17.7300  17.9325  18.6878  18.8516  19.2077  19.4362  20.0846  20.6604
    20.7149  20.9968  21.7915  21.8780  22.0381  22.2617  22.5232  23.0041
    23.3681  23.6171  23.9604  23.9955  24.2108  24.8389  25.0681  25.2589
    25.9780  26.3930  26.8619  27.1949  27.2199  27.5277  27.9197  28.5757

          k = 0.1540 0.0000-0.0000 (  7411 PWs)   bands (ev):

   -14.4335 -14.1794  -8.8228  -8.5301  -1.2990  -0.9489  -0.0519   0.2472
     0.4404   0.5339   0.6939   1.3901   3.2272   3.5707   3.8135   4.2707
     4.4774   4.7694   6.8612   7.8764  10.2438  10.9740  11.3421  11.8626
    12.1252  12.3668  12.6809  12.9687  13.0502  13.2548  13.7418  13.9563
    14.1850  14.4594  14.5306  15.4127  15.8452  15.8777  16.7216  17.5492
    17.7167  17.9570  18.6431  18.8794  19.2330  19.5203  20.0730  20.5171
    20.5831  20.8751  21.4997  21.6472  21.9668  22.0962  22.5948  22.8449
    23.2928  23.6003  23.7538  23.8544  24.1280  24.8258  24.9347  25.1355
    26.0228  26.3497  26.9138  27.0754  27.1993  27.3929  27.8868  28.4564

          k = 0.1347 0.0000-0.0000 (  7411 PWs)   bands (ev):

   -14.4522 -14.1981  -8.8753  -8.5826  -1.3361  -0.9671   0.0580   0.3313
     0.4609   0.4970   0.7144   1.3606   3.2104   3.7862   4.0278   4.2505
     4.5440   4.8362   6.7328   7.7683  10.2822  11.1765  11.5140  11.8712
    12.1624  12.4427  12.6291  12.9159  13.0743  13.2606  13.7316  14.0828
    14.0988  14.3718  14.6717  15.4191  15.8428  16.0265  16.8400  17.4610
    17.7017  17.9726  18.5861  18.7373  19.3419  19.6309  20.0822  20.3954
    20.4190  20.7701  21.1813  21.4080  21.9151  22.0817  22.6432  22.6709
    23.1324  23.3833  23.7043  23.8061  24.1716  24.7337  24.9192  24.9694
    26.0477  26.2830  26.8680  27.0664  27.1493  27.3702  27.8556  28.3084

          k = 0.1155 0.0000-0.0000 (  7413 PWs)   bands (ev):

   -14.4687 -14.2147  -8.9212  -8.6286  -1.3721  -0.9879   0.1642   0.3998
     0.4793   0.4843   0.7329   1.3327   3.1572   4.0094   4.1440   4.3307
     4.6050   4.8973   6.6165   7.6688  10.3047  11.3447  11.6459  11.8489
    12.1465  12.4705  12.5668  12.8527  13.1288  13.3300  13.7498  14.0311
    14.2745  14.3022  14.8524  15.4449  15.8548  16.1350  16.9426  17.3492
    17.7004  17.9760  18.5170  18.5332  19.4713  19.7544  20.0656  20.2389
    20.3009  20.6861  20.8765  21.2038  21.8861  22.1255  22.4490  22.7391
    22.9381  23.1597  23.5559  23.9123  24.2575  24.6334  24.7981  24.9486
    26.0090  26.1909  26.8426  27.0465  27.0694  27.4924  27.8174  28.1436

          k = 0.0962 0.0000-0.0000 (  7415 PWs)   bands (ev):

   -14.4829 -14.2289  -8.9602  -8.6678  -1.4049  -1.0087   0.2620   0.4052
     0.4953   0.5388   0.7489   1.3069   3.0970   4.1230   4.2310   4.5228
     4.6592   4.9516   6.5140   7.5803  10.3167  11.4217  11.6995  11.8559
    12.1400  12.4762  12.5009  12.7860  13.2175  13.4457  13.7881  13.9787
    14.2476  14.4960  15.0540  15.4854  15.8773  16.1878  17.0004  17.2459
    17.7197  17.9664  18.3338  18.4386  19.5816  19.8253  20.0265  20.1048
    20.2356  20.5973  20.6229  21.0363  21.8835  22.1308  22.3198  22.7561
    22.7897  22.9986  23.4187  24.0029  24.3054  24.5661  24.6826  24.9798
    25.8199  26.2052  26.8177  26.9684  27.0626  27.6620  27.7667  27.9880

          k = 0.0770 0.0000-0.0000 (  7413 PWs)   bands (ev):

   -14.4947 -14.2408  -8.9924  -8.7000  -1.4329  -1.0277   0.3405   0.3955
     0.5087   0.6150   0.7623   1.2837   3.0392   4.0987   4.4172   4.7054
     4.7089   4.9980   6.4268   7.5048  10.3216  11.3719  11.6807  11.9144
    12.1994  12.4378  12.4822  12.7223  13.3087  13.5712  13.8544  13.9386
    14.2053  14.7266  15.2601  15.5346  15.9056  16.1805  16.9422  17.2222
    17.7484  17.9465  18.1848  18.3567  19.5891  19.8510  19.8988  20.1478
    20.1980  20.3767  20.5776  20.8945  21.8347  22.0579  22.3009  22.6510
    22.8168  22.9074  23.3004  24.0009  24.3198  24.5385  24.6747  25.0011
    25.5835  26.2767  26.7562  26.8610  27.1339  27.7077  27.7102  27.9749

          k = 0.0577 0.0000-0.0000 (  7399 PWs)   bands (ev):

   -14.5039 -14.2501  -9.0176  -8.7252  -1.4555  -1.0437   0.3553   0.4361
     0.5194   0.6842   0.7730   1.2635   2.9889   4.0731   4.5747   4.7426
     4.8664   5.0352   6.3564   7.4441  10.3220  11.2752  11.5978  12.0222
    12.2701  12.3833  12.5024  12.6673  13.3740  13.6874  13.9089  13.9461
    14.1736  14.9529  15.4538  15.5856  15.9343  16.1240  16.8155  17.2160
    17.7770  17.9215  18.1198  18.2786  19.4831  19.7658  19.9141  20.1082
    20.1831  20.3510  20.5457  20.7719  21.7335  21.9360  22.3441  22.6314
    22.8215  22.8951  23.2066  23.8602  24.4027  24.5483  24.7104  25.0062
    25.3576  26.3686  26.6873  26.7625  27.2079  27.6070  27.6498  28.1229

          k = 0.0385 0.0000-0.0000 (  7387 PWs)   bands (ev):

   -14.5106 -14.2568  -9.0356  -8.7432  -1.4719  -1.0557   0.3453   0.4878
     0.5271   0.7389   0.7807   1.2473   2.9499   4.0525   4.6940   4.7699
     4.9861   5.0626   6.3043   7.3995  10.3198  11.1866  11.5143  12.1251
    12.3076  12.3413  12.5396  12.6252  13.4092  13.7848  13.8882  14.0403
    14.1513  15.1632  15.6097  15.6304  15.9585  16.0444  16.6924  17.1626
    17.8163  17.8982  18.1211  18.2130  19.3706  19.6581  19.8655  20.1134
    20.1827  20.4299  20.5238  20.6700  21.6353  21.8093  22.3703  22.6825
    22.8121  22.9449  23.1398  23.6735  24.5129  24.5841  24.7380  24.9936
    25.1652  26.4557  26.6330  26.6851  27.2394  27.5442  27.6019  28.1698

          k = 0.0192 0.0000-0.0000 (  7388 PWs)   bands (ev):

   -14.5147 -14.2608  -9.0464  -8.7541  -1.4819  -1.0631   0.3378   0.5213
     0.5318   0.7742   0.7854   1.2365   2.9251   4.0392   4.7685   4.7865
     5.0612   5.0793   6.2721   7.3723  10.3173  11.1274  11.4576  12.2018
    12.3124  12.3151  12.5754  12.5987  13.4242  13.8507  13.8760  14.1100
    14.1381  15.3394  15.6615  15.6818  15.9744  15.9888  16.6019  17.0958
    17.8570  17.8822  18.1413  18.1688  19.2933  19.5836  19.7871  20.1713
    20.1879  20.4900  20.5103  20.5981  21.5673  21.7207  22.3660  22.7597
    22.8002  23.0266  23.1000  23.4982  24.6096  24.6256  24.7522  24.9714
    25.0229  26.5034  26.6151  26.6366  27.2223  27.5484  27.5703  28.1005

          k = 0.0000 0.0000 0.0000 (  7385 PWs)   bands (ev):

   -14.5160 -14.2622  -9.0500  -8.7577  -1.4852  -1.0656   0.3352   0.5327
     0.5333   0.7865   0.7869   1.2327   2.9166   4.0347   4.7921   4.7939
     5.0849   5.0868   6.2612   7.3631  10.3162  11.1068  11.4377  12.2347
    12.3060  12.3061  12.5896  12.5897  13.4282  13.8719  13.8741  14.1337
    14.1356  15.4246  15.6726  15.6741  15.9799  15.9815  16.5675  17.0665
    17.8743  17.8766  18.1508  18.1530  19.2661  19.5565  19.7582  20.1907
    20.1965  20.5056  20.5113  20.5713  21.5429  21.6897  22.3612  22.7935
    22.7951  23.0831  23.0868  23.4084  24.6450  24.6513  24.7608  24.9594
    24.9617  26.5096  26.6201  26.6210  27.2082  27.5594  27.5610  28.0652

     Writing all to output data dir ./work/Al2SO.save/
 
     init_run     :      0.29s CPU      0.33s WALL (       1 calls)
     electrons    :    181.73s CPU    241.44s WALL (       1 calls)

     Called by init_run:
     wfcinit      :      0.00s CPU      0.00s WALL (       1 calls)
     potinit      :      0.09s CPU      0.11s WALL (       1 calls)
     hinit0       :      0.14s CPU      0.16s WALL (       1 calls)

     Called by electrons:
     c_bands      :    181.73s CPU    241.43s WALL (       1 calls)
     v_of_rho     :      0.01s CPU      0.01s WALL (       1 calls)
     newd         :      0.04s CPU      0.04s WALL (       1 calls)
     PAW_pot      :      0.08s CPU      0.10s WALL (       1 calls)

     Called by c_bands:
     init_us_2    :      0.04s CPU      0.04s WALL (      91 calls)
     init_us_2:cp :      0.04s CPU      0.04s WALL (      91 calls)
     cegterg      :    178.08s CPU    235.98s WALL (     308 calls)

     Called by *egterg:
     cdiaghg      :     32.53s CPU     33.55s WALL (    5524 calls)
     h_psi        :     92.16s CPU    147.27s WALL (    5832 calls)
     s_psi        :      6.56s CPU      6.96s WALL (    5832 calls)
     g_psi        :      0.21s CPU      0.22s WALL (    5433 calls)

     Called by h_psi:
     h_psi:calbec :      9.99s CPU     13.23s WALL (    5832 calls)
     vloc_psi     :     71.51s CPU    122.29s WALL (    5832 calls)
     add_vuspsi   :      9.93s CPU     10.98s WALL (    5832 calls)

     General routines
     calbec       :      9.97s CPU     13.21s WALL (    5832 calls)
     fft          :      0.00s CPU      0.01s WALL (      12 calls)
     fftw         :     69.25s CPU    118.70s WALL (  454294 calls)
     davcio       :      0.06s CPU      0.08s WALL (     182 calls)
 
     Parallel routines
 
     PWSCF        :   3m 3.35s CPU   4m 4.70s WALL

 
   This run was terminated on:  13:39:14   7Mar2023            

=------------------------------------------------------------------------------=
   JOB DONE.
=------------------------------------------------------------------------------=
