
     Program PWSCF v.7.1 starts on  7Mar2023 at 13:29:34 

     This program is part of the open-source Quantum ESPRESSO suite
     for quantum simulation of materials; please cite
         "P. Giannozzi et al., J. Phys.:Condens. Matter 21 395502 (2009);
         "P. Giannozzi et al., J. Phys.:Condens. Matter 29 465901 (2017);
         "P. Giannozzi et al., J. Chem. Phys. 152 154105 (2020);
          URL http://www.quantum-espresso.org", 
     in publications or presentations arising from this work. More details at
     http://www.quantum-espresso.org/quote

     Parallel version (MPI), running on    22 processors

     MPI processes distributed on     1 nodes
     98672 MiB available memory on the printing compute node when the environment starts
 
     Waiting for input...
     Reading input from standard input

     Current dimensions of program PWSCF are:
     Max number of different atomic species (ntypx) = 10
     Max number of k-points (npk) =  40000
     Max angular momentum in pseudopotentials (lmaxx) =  4
     Message from routine volume:
     axis vectors are left-handed
     file Al.pbe-n-kjpaw_psl.1.0.0.UPF: wavefunction(s)  3S 3P renormalized
     file O.pbe-n-kjpaw_psl.1.0.0.UPF: wavefunction(s)  2S 2P renormalized
     file S.pbe-n-kjpaw_psl.1.0.0.UPF: wavefunction(s)  3S 3P renormalized
     Message from routine setup:
     using ibrav=0 with symmetry is DISCOURAGED, use correct ibrav instead
 
     R & G space division:  proc/nbgrp/npool/nimage =      22
     Subspace diagonalization in iterative solution of the eigenvalue problem:
     a serial algorithm will be used

 
     Parallelization info
     --------------------
     sticks:   dense  smooth     PW     G-vecs:    dense   smooth      PW
     Min          28      28      9                 2675     2675     475
     Max          29      29     10                 2682     2682     490
     Sum         637     637    199                58931    58931   10585
 
     Using Slab Decomposition
 


     bravais-lattice index     =            0
     lattice parameter (alat)  =       6.1447  a.u.
     unit-cell volume          =     939.5175 (a.u.)^3
     number of atoms/cell      =            8
     number of atomic types    =            3
     number of electrons       =        36.00
     number of Kohn-Sham states=           72
     kinetic-energy cutoff     =      60.0000  Ry
     charge density cutoff     =     240.0000  Ry
     scf convergence threshold =      1.0E-08
     mixing beta               =       0.5000
     number of iterations used =            8  plain     mixing
     Exchange-correlation= SLA  PW   PBX  PBC
                           (   1   4   3   4   0   0   0)

     celldm(1)=   6.144681  celldm(2)=   0.000000  celldm(3)=   0.000000
     celldm(4)=   0.000000  celldm(5)=   0.000000  celldm(6)=   0.000000

     crystal axes: (cart. coord. in units of alat)
               a(1) = (   0.866011   0.500025   0.000208 )  
               a(2) = (   0.866011  -0.500025   0.000208 )  
               a(3) = (   0.000695   0.000000   4.675863 )  

     reciprocal axes: (cart. coord. in units 2 pi/alat)
               b(1) = (  0.577360  0.999950 -0.000086 )  
               b(2) = (  0.577360 -0.999950 -0.000086 )  
               b(3) = ( -0.000051  0.000000  0.213864 )  


     PseudoPot. # 1 for Al read from file:
     /home/mainadmin/research/danu/pseudo/Al.pbe-n-kjpaw_psl.1.0.0.UPF
     MD5 check sum: 502b6b27b9c6270cab5dd1084b96fa6d
     Pseudo is Projector augmented-wave + core cor, Zval =  3.0
     Generated using &quot;atomic&quot; code by A. Dal Corso  v.6.3
     Shape of augmentation charge: PSQ
     Using radial grid of 1135 points,  6 beta functions with: 
                l(1) =   0
                l(2) =   0
                l(3) =   1
                l(4) =   1
                l(5) =   2
                l(6) =   2
     Q(r) pseudized with 0 coefficients 


     PseudoPot. # 2 for O  read from file:
     /home/mainadmin/research/danu/pseudo/O.pbe-n-kjpaw_psl.1.0.0.UPF
     MD5 check sum: e99d9cef9b487d1ca56f5b95ecd0fd7a
     Pseudo is Projector augmented-wave + core cor, Zval =  6.0
     Generated using &quot;atomic&quot; code by A. Dal Corso  v.6.3
     Shape of augmentation charge: PSQ
     Using radial grid of 1095 points,  4 beta functions with: 
                l(1) =   0
                l(2) =   0
                l(3) =   1
                l(4) =   1
     Q(r) pseudized with 0 coefficients 


     PseudoPot. # 3 for S  read from file:
     /home/mainadmin/research/danu/pseudo/S.pbe-n-kjpaw_psl.1.0.0.UPF
     MD5 check sum: fb45dfebcf3e72a4e1bd4a866ec2e262
     Pseudo is Projector augmented-wave + core cor, Zval =  6.0
     Generated using &quot;atomic&quot; code by A. Dal Corso  v.6.3
     Shape of augmentation charge: PSQ
     Using radial grid of 1151 points,  6 beta functions with: 
                l(1) =   0
                l(2) =   0
                l(3) =   1
                l(4) =   1
                l(5) =   2
                l(6) =   2
     Q(r) pseudized with 0 coefficients 


     atomic species   valence    mass     pseudopotential
        Al             3.00    26.98100     Al( 1.00)
        O              6.00    15.99900     O ( 1.00)
        S              6.00    32.06500     S ( 1.00)

      2 Sym. Ops. (no inversion) found



   Cartesian axes

     site n.     atom                  positions (alat units)
         1           O   tau(   1) = (   0.5773406   0.0000000   0.0001386  )
         2           Al  tau(   2) = (   0.0000244   0.0000000   0.1504696  )
         3           Al  tau(   3) = (   0.0001437   0.0000000   0.9557440  )
         4           S   tau(   4) = (   0.5775258   0.0000000   1.3359602  )
         5           O   tau(   5) = (   1.1550252   0.0000000   2.2942912  )
         6           Al  tau(   6) = (   0.5776983   0.0000000   2.4432373  )
         7           Al  tau(   7) = (   0.5778303   0.0000000   3.2482908  )
         8           S   tau(   8) = (   1.1552159   0.0000000   3.6290113  )

     number of k points=   140

     Number of k-points >= 100: set verbosity='high' to print them.

     Dense  grid:    58931 G-vectors     FFT dimensions: (  32,  32, 144)

     Estimated max dynamical RAM per process >      65.80 MB

     Estimated total dynamical RAM >       1.41 GB

     Check: negative core charge=   -0.000004

     Initial potential from superposition of free atoms

     starting charge      35.9908, renormalised to      36.0000
     Starting wfcs are   32 randomized atomic wfcs +   40 random wfcs
     Checking if some PAW data can be deallocated... 

     total cpu time spent up to now is        8.5 secs

     Self-consistent Calculation

     iteration #  1     ecut=    60.00 Ry     beta= 0.50
     Davidson diagonalization with overlap
     ethr =  1.00E-02,  avg # of iterations =  8.0

     total cpu time spent up to now is       68.9 secs

     total energy              =    -374.10286436 Ry
     estimated scf accuracy    <       1.10559889 Ry

     iteration #  2     ecut=    60.00 Ry     beta= 0.50
     Davidson diagonalization with overlap
     ethr =  3.07E-03,  avg # of iterations =  1.3

     total cpu time spent up to now is       91.1 secs

     total energy              =    -374.32682181 Ry
     estimated scf accuracy    <       0.48398387 Ry

     iteration #  3     ecut=    60.00 Ry     beta= 0.50
     Davidson diagonalization with overlap
     ethr =  1.34E-03,  avg # of iterations =  1.8

     total cpu time spent up to now is      114.0 secs

     total energy              =    -374.43891245 Ry
     estimated scf accuracy    <       0.04751053 Ry

     iteration #  4     ecut=    60.00 Ry     beta= 0.50
     Davidson diagonalization with overlap
     ethr =  1.32E-04,  avg # of iterations =  7.5

     total cpu time spent up to now is      144.9 secs

     total energy              =    -374.44825103 Ry
     estimated scf accuracy    <       0.01338880 Ry

     iteration #  5     ecut=    60.00 Ry     beta= 0.50
     Davidson diagonalization with overlap
     ethr =  3.72E-05,  avg # of iterations =  6.7

     total cpu time spent up to now is      175.5 secs

     total energy              =    -374.44935286 Ry
     estimated scf accuracy    <       0.01976265 Ry

     iteration #  6     ecut=    60.00 Ry     beta= 0.50
     Davidson diagonalization with overlap
     ethr =  3.72E-05,  avg # of iterations =  2.4

     total cpu time spent up to now is      200.0 secs

     total energy              =    -374.45201589 Ry
     estimated scf accuracy    <       0.00116245 Ry

     iteration #  7     ecut=    60.00 Ry     beta= 0.50
     Davidson diagonalization with overlap
     c_bands:  1 eigenvalues not converged
     c_bands:  1 eigenvalues not converged
     ethr =  3.23E-06,  avg # of iterations =  7.8

     total cpu time spent up to now is      230.3 secs

     total energy              =    -374.45224125 Ry
     estimated scf accuracy    <       0.00008375 Ry

     iteration #  8     ecut=    60.00 Ry     beta= 0.50
     Davidson diagonalization with overlap
     ethr =  2.33E-07,  avg # of iterations =  2.3

     total cpu time spent up to now is      253.9 secs

     total energy              =    -374.45225815 Ry
     estimated scf accuracy    <       0.00000403 Ry

     iteration #  9     ecut=    60.00 Ry     beta= 0.50
     Davidson diagonalization with overlap
     ethr =  1.12E-08,  avg # of iterations =  2.2

     total cpu time spent up to now is      278.1 secs

     total energy              =    -374.45225890 Ry
     estimated scf accuracy    <       0.00000018 Ry

     iteration # 10     ecut=    60.00 Ry     beta= 0.50
     Davidson diagonalization with overlap
     ethr =  5.06E-10,  avg # of iterations =  4.1

     total cpu time spent up to now is      305.3 secs

     total energy              =    -374.45225900 Ry
     estimated scf accuracy    <       0.00000003 Ry

     iteration # 11     ecut=    60.00 Ry     beta= 0.50
     Davidson diagonalization with overlap
     ethr =  7.28E-11,  avg # of iterations =  2.1

     total cpu time spent up to now is      328.9 secs

     End of self-consistent calculation

     Number of k-points >= 100: set verbosity='high' to print the bands.

     highest occupied, lowest unoccupied level (ev):     5.0870    6.2612

!    total energy              =    -374.45225900 Ry
     total all-electron energy =     -3840.919401 Ry
     estimated scf accuracy    <          5.7E-09 Ry

     The total energy is the sum of the following terms:
     one-electron contribution =     -32.65150613 Ry
     hartree contribution      =      35.71382671 Ry
     xc contribution           =     -35.67926452 Ry
     ewald contribution        =     -91.67814494 Ry
     one-center paw contrib.   =    -250.15717012 Ry

     convergence has been achieved in  11 iterations

     Writing all to output data dir ./work/Al2SO.save/
 
     init_run     :      5.46s CPU      8.27s WALL (       1 calls)
     electrons    :    232.27s CPU    320.42s WALL (       1 calls)

     Called by init_run:
     wfcinit      :      5.13s CPU      7.89s WALL (       1 calls)
     potinit      :      0.14s CPU      0.16s WALL (       1 calls)
     hinit0       :      0.14s CPU      0.16s WALL (       1 calls)

     Called by electrons:
     c_bands      :    207.97s CPU    281.62s WALL (      11 calls)
     sum_band     :     22.81s CPU     37.12s WALL (      11 calls)
     v_of_rho     :      0.04s CPU      0.06s WALL (      12 calls)
     newd         :      0.45s CPU      0.48s WALL (      12 calls)
     PAW_pot      :      1.09s CPU      1.24s WALL (      12 calls)
     mix_rho      :      0.02s CPU      0.03s WALL (      11 calls)

     Called by c_bands:
     init_us_2    :      1.94s CPU      2.11s WALL (    3220 calls)
     init_us_2:cp :      1.93s CPU      2.10s WALL (    3220 calls)
     cegterg      :    200.80s CPU    274.30s WALL (    1540 calls)

     Called by *egterg:
     cdiaghg      :     34.79s CPU     36.00s WALL (    8018 calls)
     h_psi        :    114.18s CPU    185.29s WALL (    8158 calls)
     s_psi        :      7.78s CPU      8.23s WALL (    8158 calls)
     g_psi        :      0.18s CPU      0.19s WALL (    6478 calls)

     Called by h_psi:
     h_psi:calbec :     12.82s CPU     16.83s WALL (    8158 calls)
     vloc_psi     :     88.88s CPU    154.58s WALL (    8158 calls)
     add_vuspsi   :     11.11s CPU     12.45s WALL (    8158 calls)

     General routines
     calbec       :     16.16s CPU     21.31s WALL (    9698 calls)
     fft          :      0.04s CPU      0.06s WALL (     132 calls)
     ffts         :      0.00s CPU      0.00s WALL (      11 calls)
     fftw         :    102.58s CPU    178.87s WALL (  676740 calls)
 
     Parallel routines
 
     PWSCF        :   3m59.23s CPU   5m32.65s WALL

 
   This run was terminated on:  13:35: 6   7Mar2023            

=------------------------------------------------------------------------------=
   JOB DONE.
=------------------------------------------------------------------------------=
