
     Program BANDS v.7.1 starts on 17Jun2023 at 15:43:26 

     This program is part of the open-source Quantum ESPRESSO suite
     for quantum simulation of materials; please cite
         "P. Giannozzi et al., J. Phys.:Condens. Matter 21 395502 (2009);
         "P. Giannozzi et al., J. Phys.:Condens. Matter 29 465901 (2017);
         "P. Giannozzi et al., J. Chem. Phys. 152 154105 (2020);
          URL http://www.quantum-espresso.org", 
     in publications or presentations arising from this work. More details at
     http://www.quantum-espresso.org/quote

     Parallel version (MPI), running on    16 processors

     MPI processes distributed on     1 nodes
     R & G space division:  proc/nbgrp/npool/nimage =      16
     50438 MiB available memory on the printing compute node when the environment starts
 

     Reading xml data from directory:

     ./work/Al2O2.save/
     Message from routine volume:
     axis vectors are left-handed
     file Al.pbe-n-kjpaw_psl.1.0.0.UPF: wavefunction(s)  3S 3P renormalized
     file O.pbe-n-kjpaw_psl.1.0.0.UPF: wavefunction(s)  2S 2P renormalized

     IMPORTANT: XC functional enforced from input :
     Exchange-correlation= PBE
                           (   1   4   3   4   0   0   0)
     Any further DFT definition will be discarded
     Please, verify this is what you really want

 
     Parallelization info
     --------------------
     sticks:   dense  smooth     PW     G-vecs:    dense   smooth      PW
     Min          39      39     11                 3047     3047     483
     Max          40      40     12                 3053     3053     496
     Sum         625     625    187                48809    48809    7879
 
     Using Slab Decomposition
 

     Check: negative core charge=   -0.000007
     Reading collected, re-writing distributed wavefunctions
     high-symmetry point:  0.0000 0.0000 0.0000   x coordinate   0.0000
     high-symmetry point:  0.5775 0.3325 0.0000   x coordinate   0.6664
     high-symmetry point:  0.5775 0.0000 0.0000   x coordinate   0.9990
     high-symmetry point:  0.0000 0.0000 0.0000   x coordinate   1.5765

     Plottable bands (eV) written to file AB.bands.gnu
     Bands written to file AB.bands

 **************************************************************************

                    xk=(   0.00000,   0.00000,   0.00000  )

     point group C_s (m)    
     there are  2 classes
     the character table:

       E     s    
A'     1.00  1.00
A''    1.00 -1.00

     the symmetry operations in each class and the name of the first element:

     E        1
                                                                 
     s        2
                                                                 

     Band symmetry, C_s (m)     point group:

     e(  1 -  1) =    -14.16187  eV     1   --> A'             
     e(  2 -  2) =    -14.09013  eV     1   --> A'             
     e(  3 -  3) =    -13.80626  eV     1   --> A'             
     e(  4 -  4) =    -13.71609  eV     1   --> A'             
     e(  5 -  5) =     -1.11937  eV     1   --> A'             
     e(  6 -  6) =     -0.56656  eV     1   --> A'             
     e(  7 -  7) =      0.59083  eV     1   --> A'             
     e(  8 -  8) =      1.00685  eV     1   --> A''            
     e(  9 -  9) =      1.01045  eV     1   --> A'             
     e( 10 - 10) =      1.04913  eV     1   --> A''            
     e( 11 - 11) =      1.05257  eV     1   --> A'             
     e( 12 - 12) =      1.27547  eV     1   --> A''            
     e( 13 - 13) =      1.27903  eV     1   --> A'             
     e( 14 - 14) =      1.35375  eV     1   --> A''            
     e( 15 - 15) =      1.35724  eV     1   --> A'             
     e( 16 - 16) =      1.86800  eV     1   --> A'             
     e( 17 - 17) =      2.89660  eV     1   --> A'             
     e( 18 - 18) =      4.49258  eV     1   --> A'             
     e( 19 - 19) =      5.78087  eV     1   --> A'             
     e( 20 - 20) =      7.16591  eV     1   --> A'             
     e( 21 - 21) =      8.52796  eV     1   --> A'             
     e( 22 - 22) =      9.34277  eV     1   --> A'             
     e( 23 - 23) =     12.86746  eV     1   --> A'             
     e( 24 - 24) =     13.61302  eV     1   --> A''            
     e( 25 - 25) =     13.63339  eV     1   --> A'             
     e( 26 - 26) =     13.91121  eV     1   --> A''            
     e( 27 - 27) =     13.93145  eV     1   --> A'             
     e( 28 - 28) =     14.25325  eV     1   --> A'             
     e( 29 - 29) =     15.07037  eV     1   --> A''            
     e( 30 - 30) =     15.09169  eV     1   --> A'             
     e( 31 - 31) =     15.45485  eV     1   --> A'             
     e( 32 - 32) =     15.45859  eV     1   --> A''            
     e( 33 - 33) =     15.47979  eV     1   --> A'             
     e( 34 - 34) =     16.89881  eV     1   --> A'             
     e( 35 - 35) =     18.02872  eV     1   --> A''            
     e( 36 - 36) =     18.04927  eV     1   --> A'             
     e( 37 - 37) =     18.34446  eV     1   --> A'             
     e( 38 - 38) =     18.46487  eV     1   --> A''            
     e( 39 - 39) =     18.48628  eV     1   --> A'             
     e( 40 - 40) =     19.61216  eV     1   --> A'             
     e( 41 - 41) =     20.68314  eV     1   --> A'             
     e( 42 - 42) =     20.91522  eV     1   --> A''            
     e( 43 - 43) =     20.93990  eV     1   --> A'             
     e( 44 - 44) =     21.13452  eV     1   --> A'             
     e( 45 - 45) =     21.54432  eV     1   --> A''            
     e( 46 - 46) =     21.56845  eV     1   --> A'             
     e( 47 - 47) =     21.65134  eV     1   --> A'             
     e( 48 - 48) =     22.56898  eV     1   --> A''            
     e( 49 - 49) =     22.58777  eV     1   --> A'             
     e( 50 - 50) =     22.80531  eV     1   --> A'             
     e( 51 - 51) =     23.19145  eV     1   --> A''            
     e( 52 - 52) =     23.21195  eV     1   --> A'             
     e( 53 - 53) =     24.40052  eV     1   --> A'             
     e( 54 - 54) =     24.85625  eV     1   --> A''            
     e( 55 - 55) =     24.88237  eV     1   --> A'             
     e( 56 - 56) =     25.33151  eV     1   --> A'             
     e( 57 - 57) =     25.71864  eV     1   --> A''            
     e( 58 - 58) =     25.74538  eV     1   --> A'             
     e( 59 - 59) =     25.86215  eV     1   --> A'             
     e( 60 - 60) =     27.53178  eV     1   --> A''            
     e( 61 - 61) =     27.55856  eV     1   --> A'             
     e( 62 - 62) =     28.51993  eV     1   --> A'             
     e( 63 - 63) =     28.92819  eV     1   --> A''            
     e( 64 - 64) =     28.95417  eV     1   --> A'             
     e( 65 - 65) =     29.34979  eV     1   --> A''            
     e( 66 - 66) =     29.37445  eV     1   --> A'             
     e( 67 - 67) =     30.05085  eV     1   --> A'             
     e( 68 - 68) =     30.35265  eV     1   --> A'             
     e( 69 - 69) =     31.46552  eV     1   --> A'             
     e( 70 - 70) =     31.55480  eV     1   --> A''            

 **************************************************************************

 **************************************************************************

                    xk=(   0.01925,   0.01108,   0.00000  )

     point group C_1 (1)    
     there are  1 classes
     the character table:

       E    
A      1.00

     the symmetry operations in each class and the name of the first element:

     E        1
                                                                 

     Band symmetry, C_1 (1)     point group:

     e(  1 -  1) =    -14.15993  eV     1   --> A              
     e(  2 -  2) =    -14.08830  eV     1   --> A              
     e(  3 -  3) =    -13.80452  eV     1   --> A              
     e(  4 -  4) =    -13.71443  eV     1   --> A              
     e(  5 -  5) =     -1.11572  eV     1   --> A              
     e(  6 -  6) =     -0.56664  eV     1   --> A              
     e(  7 -  7) =      0.59313  eV     1   --> A              
     e(  8 -  8) =      0.99620  eV     1   --> A              
     e(  9 -  9) =      1.00566  eV     1   --> A              
     e( 10 - 10) =      1.03399  eV     1   --> A              
     e( 11 - 11) =      1.04788  eV     1   --> A              
     e( 12 - 12) =      1.25952  eV     1   --> A              
     e( 13 - 13) =      1.27447  eV     1   --> A              
     e( 14 - 14) =      1.33865  eV     1   --> A              
     e( 15 - 15) =      1.35275  eV     1   --> A              
     e( 16 - 16) =      1.87422  eV     1   --> A              
     e( 17 - 17) =      2.91855  eV     1   --> A              
     e( 18 - 18) =      4.49622  eV     1   --> A              
     e( 19 - 19) =      5.80147  eV     1   --> A              
     e( 20 - 20) =      7.18210  eV     1   --> A              
     e( 21 - 21) =      8.53414  eV     1   --> A              
     e( 22 - 22) =      9.35401  eV     1   --> A              
     e( 23 - 23) =     12.86189  eV     1   --> A              
     e( 24 - 24) =     13.57202  eV     1   --> A              
     e( 25 - 25) =     13.62145  eV     1   --> A              
     e( 26 - 26) =     13.87077  eV     1   --> A              
     e( 27 - 27) =     13.91973  eV     1   --> A              
     e( 28 - 28) =     14.23843  eV     1   --> A              
     e( 29 - 29) =     15.06650  eV     1   --> A              
     e( 30 - 30) =     15.08957  eV     1   --> A              
     e( 31 - 31) =     15.45217  eV     1   --> A              
     e( 32 - 32) =     15.47234  eV     1   --> A              
     e( 33 - 33) =     15.47698  eV     1   --> A              
     e( 34 - 34) =     16.94561  eV     1   --> A              
     e( 35 - 35) =     17.98094  eV     1   --> A              
     e( 36 - 36) =     18.01879  eV     1   --> A              
     e( 37 - 37) =     18.30796  eV     1   --> A              
     e( 38 - 38) =     18.46746  eV     1   --> A              
     e( 39 - 39) =     18.53196  eV     1   --> A              
     e( 40 - 40) =     19.61961  eV     1   --> A              
     e( 41 - 41) =     20.71316  eV     1   --> A              
     e( 42 - 42) =     20.84718  eV     1   --> A              
     e( 43 - 43) =     20.94969  eV     1   --> A              
     e( 44 - 44) =     21.26010  eV     1   --> A              
     e( 45 - 45) =     21.52463  eV     1   --> A              
     e( 46 - 46) =     21.57801  eV     1   --> A              
     e( 47 - 47) =     21.68251  eV     1   --> A              
     e( 48 - 48) =     22.51630  eV     1   --> A              
     e( 49 - 49) =     22.53462  eV     1   --> A              
     e( 50 - 50) =     22.86899  eV     1   --> A              
     e( 51 - 51) =     23.20767  eV     1   --> A              
     e( 52 - 52) =     23.22722  eV     1   --> A              
     e( 53 - 53) =     24.44555  eV     1   --> A              
     e( 54 - 54) =     24.85990  eV     1   --> A              
     e( 55 - 55) =     24.89438  eV     1   --> A              
     e( 56 - 56) =     25.34076  eV     1   --> A              
     e( 57 - 57) =     25.71868  eV     1   --> A              
     e( 58 - 58) =     25.74753  eV     1   --> A              
     e( 59 - 59) =     25.87323  eV     1   --> A              
     e( 60 - 60) =     27.50870  eV     1   --> A              
     e( 61 - 61) =     27.54602  eV     1   --> A              
     e( 62 - 62) =     28.52239  eV     1   --> A              
     e( 63 - 63) =     28.93674  eV     1   --> A              
     e( 64 - 64) =     28.97864  eV     1   --> A              
     e( 65 - 65) =     29.34463  eV     1   --> A              
     e( 66 - 66) =     29.38728  eV     1   --> A              
     e( 67 - 67) =     30.08909  eV     1   --> A              
     e( 68 - 68) =     30.38102  eV     1   --> A              
     e( 69 - 69) =     31.46133  eV     1   --> A              
     e( 70 - 70) =     31.56221  eV     1   --> A              

 **************************************************************************

 **************************************************************************

                    xk=(   0.03850,   0.02217,   0.00000  )

     Band symmetry, C_1 (1)     point group:

     e(  1 -  1) =    -14.15412  eV     1   --> A              
     e(  2 -  2) =    -14.08278  eV     1   --> A              
     e(  3 -  3) =    -13.79929  eV     1   --> A              
     e(  4 -  4) =    -13.70946  eV     1   --> A              
     e(  5 -  5) =     -1.10486  eV     1   --> A              
     e(  6 -  6) =     -0.56703  eV     1   --> A              
     e(  7 -  7) =      0.59967  eV     1   --> A              
     e(  8 -  8) =      0.95617  eV     1   --> A              
     e(  9 -  9) =      0.98357  eV     1   --> A              
     e( 10 - 10) =      0.99839  eV     1   --> A              
     e( 11 - 11) =      1.04097  eV     1   --> A              
     e( 12 - 12) =      1.20961  eV     1   --> A              
     e( 13 - 13) =      1.26821  eV     1   --> A              
     e( 14 - 14) =      1.28930  eV     1   --> A              
     e( 15 - 15) =      1.34661  eV     1   --> A              
     e( 16 - 16) =      1.89123  eV     1   --> A              
     e( 17 - 17) =      2.98048  eV     1   --> A              
     e( 18 - 18) =      4.50711  eV     1   --> A              
     e( 19 - 19) =      5.86219  eV     1   --> A              
     e( 20 - 20) =      7.23008  eV     1   --> A              
     e( 21 - 21) =      8.55251  eV     1   --> A              
     e( 22 - 22) =      9.38748  eV     1   --> A              
     e( 23 - 23) =     12.84511  eV     1   --> A              
     e( 24 - 24) =     13.42101  eV     1   --> A              
     e( 25 - 25) =     13.62430  eV     1   --> A              
     e( 26 - 26) =     13.72248  eV     1   --> A              
     e( 27 - 27) =     13.92351  eV     1   --> A              
     e( 28 - 28) =     14.19344  eV     1   --> A              
     e( 29 - 29) =     15.02563  eV     1   --> A              
     e( 30 - 30) =     15.11415  eV     1   --> A              
     e( 31 - 31) =     15.40357  eV     1   --> A              
     e( 32 - 32) =     15.50078  eV     1   --> A              
     e( 33 - 33) =     15.51328  eV     1   --> A              
     e( 34 - 34) =     17.06953  eV     1   --> A              
     e( 35 - 35) =     17.82847  eV     1   --> A              
     e( 36 - 36) =     17.96321  eV     1   --> A              
     e( 37 - 37) =     18.23210  eV     1   --> A              
     e( 38 - 38) =     18.45349  eV     1   --> A              
     e( 39 - 39) =     18.65332  eV     1   --> A              
     e( 40 - 40) =     19.64108  eV     1   --> A              
     e( 41 - 41) =     20.72670  eV     1   --> A              
     e( 42 - 42) =     20.79860  eV     1   --> A              
     e( 43 - 43) =     21.01355  eV     1   --> A              
     e( 44 - 44) =     21.43876  eV     1   --> A              
     e( 45 - 45) =     21.50536  eV     1   --> A              
     e( 46 - 46) =     21.65418  eV     1   --> A              
     e( 47 - 47) =     21.77043  eV     1   --> A              
     e( 48 - 48) =     22.38242  eV     1   --> A              
     e( 49 - 49) =     22.40200  eV     1   --> A              
     e( 50 - 50) =     23.04096  eV     1   --> A              
     e( 51 - 51) =     23.23471  eV     1   --> A              
     e( 52 - 52) =     23.25416  eV     1   --> A              
     e( 53 - 53) =     24.57076  eV     1   --> A              
     e( 54 - 54) =     24.83300  eV     1   --> A              
     e( 55 - 55) =     24.97143  eV     1   --> A              
     e( 56 - 56) =     25.35991  eV     1   --> A              
     e( 57 - 57) =     25.68306  eV     1   --> A              
     e( 58 - 58) =     25.79038  eV     1   --> A              
     e( 59 - 59) =     25.91848  eV     1   --> A              
     e( 60 - 60) =     27.43529  eV     1   --> A              
     e( 61 - 61) =     27.51940  eV     1   --> A              
     e( 62 - 62) =     28.50702  eV     1   --> A              
     e( 63 - 63) =     28.95271  eV     1   --> A              
     e( 64 - 64) =     29.08086  eV     1   --> A              
     e( 65 - 65) =     29.29984  eV     1   --> A              
     e( 66 - 66) =     29.46461  eV     1   --> A              
     e( 67 - 67) =     30.18719  eV     1   --> A              
     e( 68 - 68) =     30.45821  eV     1   --> A              
     e( 69 - 69) =     31.44708  eV     1   --> A              
     e( 70 - 70) =     31.57963  eV     1   --> A              

 **************************************************************************

 **************************************************************************

                    xk=(   0.05775,   0.03325,   0.00000  )

     Band symmetry, C_1 (1)     point group:

     e(  1 -  1) =    -14.14450  eV     1   --> A              
     e(  2 -  2) =    -14.07363  eV     1   --> A              
     e(  3 -  3) =    -13.79063  eV     1   --> A              
     e(  4 -  4) =    -13.70124  eV     1   --> A              
     e(  5 -  5) =     -1.08725  eV     1   --> A              
     e(  6 -  6) =     -0.56842  eV     1   --> A              
     e(  7 -  7) =      0.60931  eV     1   --> A              
     e(  8 -  8) =      0.88607  eV     1   --> A              
     e(  9 -  9) =      0.90478  eV     1   --> A              
     e( 10 - 10) =      0.98636  eV     1   --> A              
     e( 11 - 11) =      1.02903  eV     1   --> A              
     e( 12 - 12) =      1.14124  eV     1   --> A              
     e( 13 - 13) =      1.21501  eV     1   --> A              
     e( 14 - 14) =      1.25785  eV     1   --> A              
     e( 15 - 15) =      1.33643  eV     1   --> A              
     e( 16 - 16) =      1.91533  eV     1   --> A              
     e( 17 - 17) =      3.07307  eV     1   --> A              
     e( 18 - 18) =      4.52426  eV     1   --> A              
     e( 19 - 19) =      5.95996  eV     1   --> A              
     e( 20 - 20) =      7.30815  eV     1   --> A              
     e( 21 - 21) =      8.58248  eV     1   --> A              
     e( 22 - 22) =      9.44239  eV     1   --> A              
     e( 23 - 23) =     12.81695  eV     1   --> A              
     e( 24 - 24) =     13.19737  eV     1   --> A              
     e( 25 - 25) =     13.49884  eV     1   --> A              
     e( 26 - 26) =     13.63348  eV     1   --> A              
     e( 27 - 27) =     13.92975  eV     1   --> A              
     e( 28 - 28) =     14.11744  eV     1   --> A              
     e( 29 - 29) =     14.95641  eV     1   --> A              
     e( 30 - 30) =     15.16011  eV     1   --> A              
     e( 31 - 31) =     15.32757  eV     1   --> A              
     e( 32 - 32) =     15.54490  eV     1   --> A              
     e( 33 - 33) =     15.55480  eV     1   --> A              
     e( 34 - 34) =     17.20926  eV     1   --> A              
     e( 35 - 35) =     17.64761  eV     1   --> A              
     e( 36 - 36) =     17.87232  eV     1   --> A              
     e( 37 - 37) =     18.15529  eV     1   --> A              
     e( 38 - 38) =     18.41374  eV     1   --> A              
     e( 39 - 39) =     18.82787  eV     1   --> A              
     e( 40 - 40) =     19.67447  eV     1   --> A              
     e( 41 - 41) =     20.62515  eV     1   --> A              
     e( 42 - 42) =     20.92131  eV     1   --> A              
     e( 43 - 43) =     21.08782  eV     1   --> A              
     e( 44 - 44) =     21.34484  eV     1   --> A              
     e( 45 - 45) =     21.72162  eV     1   --> A              
     e( 46 - 46) =     21.86960  eV     1   --> A              
     e( 47 - 47) =     21.89022  eV     1   --> A              
     e( 48 - 48) =     22.21548  eV     1   --> A              
     e( 49 - 49) =     22.23789  eV     1   --> A              
     e( 50 - 50) =     23.24443  eV     1   --> A              
     e( 51 - 51) =     23.26809  eV     1   --> A              
     e( 52 - 52) =     23.29048  eV     1   --> A              
     e( 53 - 53) =     24.74258  eV     1   --> A              
     e( 54 - 54) =     24.79797  eV     1   --> A              
     e( 55 - 55) =     25.09571  eV     1   --> A              
     e( 56 - 56) =     25.38198  eV     1   --> A              
     e( 57 - 57) =     25.62527  eV     1   --> A              
     e( 58 - 58) =     25.86228  eV     1   --> A              
     e( 59 - 59) =     26.02159  eV     1   --> A              
     e( 60 - 60) =     27.31578  eV     1   --> A              
     e( 61 - 61) =     27.49146  eV     1   --> A              
     e( 62 - 62) =     28.44918  eV     1   --> A              
     e( 63 - 63) =     28.97363  eV     1   --> A              
     e( 64 - 64) =     29.24003  eV     1   --> A              
     e( 65 - 65) =     29.29124  eV     1   --> A              
     e( 66 - 66) =     29.57895  eV     1   --> A              
     e( 67 - 67) =     30.31694  eV     1   --> A              
     e( 68 - 68) =     30.55877  eV     1   --> A              
     e( 69 - 69) =     31.43583  eV     1   --> A              
     e( 70 - 70) =     31.60756  eV     1   --> A              

 **************************************************************************

 **************************************************************************

                    xk=(   0.07701,   0.04434,   0.00000  )

     Band symmetry, C_1 (1)     point group:

     e(  1 -  1) =    -14.13118  eV     1   --> A              
     e(  2 -  2) =    -14.06097  eV     1   --> A              
     e(  3 -  3) =    -13.77866  eV     1   --> A              
     e(  4 -  4) =    -13.68985  eV     1   --> A              
     e(  5 -  5) =     -1.06371  eV     1   --> A              
     e(  6 -  6) =     -0.57182  eV     1   --> A              
     e(  7 -  7) =      0.61886  eV     1   --> A              
     e(  8 -  8) =      0.78597  eV     1   --> A              
     e(  9 -  9) =      0.80340  eV     1   --> A              
     e( 10 - 10) =      0.96895  eV     1   --> A              
     e( 11 - 11) =      1.00902  eV     1   --> A              
     e( 12 - 12) =      1.06926  eV     1   --> A              
     e( 13 - 13) =      1.12717  eV     1   --> A              
     e( 14 - 14) =      1.24294  eV     1   --> A              
     e( 15 - 15) =      1.32195  eV     1   --> A              
     e( 16 - 16) =      1.94315  eV     1   --> A              
     e( 17 - 17) =      3.18617  eV     1   --> A              
     e( 18 - 18) =      4.54638  eV     1   --> A              
     e( 19 - 19) =      6.09043  eV     1   --> A              
     e( 20 - 20) =      7.41373  eV     1   --> A              
     e( 21 - 21) =      8.62314  eV     1   --> A              
     e( 22 - 22) =      9.51743  eV     1   --> A              
     e( 23 - 23) =     12.77714  eV     1   --> A              
     e( 24 - 24) =     12.92757  eV     1   --> A              
     e( 25 - 25) =     13.23297  eV     1   --> A              
     e( 26 - 26) =     13.63792  eV     1   --> A              
     e( 27 - 27) =     13.93489  eV     1   --> A              
     e( 28 - 28) =     14.01094  eV     1   --> A              
     e( 29 - 29) =     14.86414  eV     1   --> A              
     e( 30 - 30) =     15.21724  eV     1   --> A              
     e( 31 - 31) =     15.24654  eV     1   --> A              
     e( 32 - 32) =     15.57917  eV     1   --> A              
     e( 33 - 33) =     15.60680  eV     1   --> A              
     e( 34 - 34) =     17.17259  eV     1   --> A              
     e( 35 - 35) =     17.60432  eV     1   --> A              
     e( 36 - 36) =     17.76521  eV     1   --> A              
     e( 37 - 37) =     18.10614  eV     1   --> A              
     e( 38 - 38) =     18.34590  eV     1   --> A              
     e( 39 - 39) =     19.04350  eV     1   --> A              
     e( 40 - 40) =     19.71732  eV     1   --> A              
     e( 41 - 41) =     20.55810  eV     1   --> A              
     e( 42 - 42) =     21.03823  eV     1   --> A              
     e( 43 - 43) =     21.16039  eV     1   --> A              
     e( 44 - 44) =     21.27117  eV     1   --> A              
     e( 45 - 45) =     21.85291  eV     1   --> A              
     e( 46 - 46) =     21.90295  eV     1   --> A              
     e( 47 - 47) =     22.09092  eV     1   --> A              
     e( 48 - 48) =     22.16021  eV     1   --> A              
     e( 49 - 49) =     22.25131  eV     1   --> A              
     e( 50 - 50) =     23.22797  eV     1   --> A              
     e( 51 - 51) =     23.27930  eV     1   --> A              
     e( 52 - 52) =     23.59159  eV     1   --> A              
     e( 53 - 53) =     24.76837  eV     1   --> A              
     e( 54 - 54) =     24.88607  eV     1   --> A              
     e( 55 - 55) =     25.24861  eV     1   --> A              
     e( 56 - 56) =     25.45360  eV     1   --> A              
     e( 57 - 57) =     25.56095  eV     1   --> A              
     e( 58 - 58) =     25.95256  eV     1   --> A              
     e( 59 - 59) =     26.18950  eV     1   --> A              
     e( 60 - 60) =     27.16176  eV     1   --> A              
     e( 61 - 61) =     27.47243  eV     1   --> A              
     e( 62 - 62) =     28.35556  eV     1   --> A              
     e( 63 - 63) =     29.00063  eV     1   --> A              
     e( 64 - 64) =     29.20927  eV     1   --> A              
     e( 65 - 65) =     29.56180  eV     1   --> A              
     e( 66 - 66) =     29.71123  eV     1   --> A              
     e( 67 - 67) =     30.45847  eV     1   --> A              
     e( 68 - 68) =     30.63882  eV     1   --> A              
     e( 69 - 69) =     31.45756  eV     1   --> A              
     e( 70 - 70) =     31.65568  eV     1   --> A              

 **************************************************************************

 **************************************************************************

                    xk=(   0.09626,   0.05542,   0.00000  )

     Band symmetry, C_1 (1)     point group:

     e(  1 -  1) =    -14.11430  eV     1   --> A              
     e(  2 -  2) =    -14.04493  eV     1   --> A              
     e(  3 -  3) =    -13.76352  eV     1   --> A              
     e(  4 -  4) =    -13.67544  eV     1   --> A              
     e(  5 -  5) =     -1.03568  eV     1   --> A              
     e(  6 -  6) =     -0.57841  eV     1   --> A              
     e(  7 -  7) =      0.61470  eV     1   --> A              
     e(  8 -  8) =      0.66219  eV     1   --> A              
     e(  9 -  9) =      0.69104  eV     1   --> A              
     e( 10 - 10) =      0.94481  eV     1   --> A              
     e( 11 - 11) =      0.96283  eV     1   --> A              
     e( 12 - 12) =      1.01296  eV     1   --> A              
     e( 13 - 13) =      1.04558  eV     1   --> A              
     e( 14 - 14) =      1.22334  eV     1   --> A              
     e( 15 - 15) =      1.30302  eV     1   --> A              
     e( 16 - 16) =      1.97239  eV     1   --> A              
     e( 17 - 17) =      3.31144  eV     1   --> A              
     e( 18 - 18) =      4.57202  eV     1   --> A              
     e( 19 - 19) =      6.24867  eV     1   --> A              
     e( 20 - 20) =      7.54368  eV     1   --> A              
     e( 21 - 21) =      8.67324  eV     1   --> A              
     e( 22 - 22) =      9.61078  eV     1   --> A              
     e( 23 - 23) =     12.63080  eV     1   --> A              
     e( 24 - 24) =     12.72550  eV     1   --> A              
     e( 25 - 25) =     12.93935  eV     1   --> A              
     e( 26 - 26) =     13.63760  eV     1   --> A              
     e( 27 - 27) =     13.87718  eV     1   --> A              
     e( 28 - 28) =     13.93501  eV     1   --> A              
     e( 29 - 29) =     14.74962  eV     1   --> A              
     e( 30 - 30) =     15.14912  eV     1   --> A              
     e( 31 - 31) =     15.30989  eV     1   --> A              
     e( 32 - 32) =     15.58046  eV     1   --> A              
     e( 33 - 33) =     15.68463  eV     1   --> A              
     e( 34 - 34) =     16.93857  eV     1   --> A              
     e( 35 - 35) =     17.56971  eV     1   --> A              
     e( 36 - 36) =     17.74599  eV     1   --> A              
     e( 37 - 37) =     18.13894  eV     1   --> A              
     e( 38 - 38) =     18.25870  eV     1   --> A              
     e( 39 - 39) =     19.28453  eV     1   --> A              
     e( 40 - 40) =     19.76708  eV     1   --> A              
     e( 41 - 41) =     20.53660  eV     1   --> A              
     e( 42 - 42) =     21.06327  eV     1   --> A              
     e( 43 - 43) =     21.21587  eV     1   --> A              
     e( 44 - 44) =     21.25240  eV     1   --> A              
     e( 45 - 45) =     21.71848  eV     1   --> A              
     e( 46 - 46) =     21.99249  eV     1   --> A              
     e( 47 - 47) =     22.05351  eV     1   --> A              
     e( 48 - 48) =     22.26107  eV     1   --> A              
     e( 49 - 49) =     22.68157  eV     1   --> A              
     e( 50 - 50) =     23.19291  eV     1   --> A              
     e( 51 - 51) =     23.32446  eV     1   --> A              
     e( 52 - 52) =     23.93445  eV     1   --> A              
     e( 53 - 53) =     24.75124  eV     1   --> A              
     e( 54 - 54) =     24.91792  eV     1   --> A              
     e( 55 - 55) =     25.37825  eV     1   --> A              
     e( 56 - 56) =     25.53123  eV     1   --> A              
     e( 57 - 57) =     25.65369  eV     1   --> A              
     e( 58 - 58) =     26.05306  eV     1   --> A              
     e( 59 - 59) =     26.40201  eV     1   --> A              
     e( 60 - 60) =     26.99370  eV     1   --> A              
     e( 61 - 61) =     27.46963  eV     1   --> A              
     e( 62 - 62) =     28.24223  eV     1   --> A              
     e( 63 - 63) =     29.03408  eV     1   --> A              
     e( 64 - 64) =     29.18412  eV     1   --> A              
     e( 65 - 65) =     29.84715  eV     1   --> A              
     e( 66 - 66) =     29.89041  eV     1   --> A              
     e( 67 - 67) =     30.59858  eV     1   --> A              
     e( 68 - 68) =     30.65758  eV     1   --> A              
     e( 69 - 69) =     31.52577  eV     1   --> A              
     e( 70 - 70) =     31.74546  eV     1   --> A              

 **************************************************************************

 **************************************************************************

                    xk=(   0.11551,   0.06651,   0.00000  )

     Band symmetry, C_1 (1)     point group:

     e(  1 -  1) =    -14.09407  eV     1   --> A              
     e(  2 -  2) =    -14.02571  eV     1   --> A              
     e(  3 -  3) =    -13.74538  eV     1   --> A              
     e(  4 -  4) =    -13.65819  eV     1   --> A              
     e(  5 -  5) =     -1.00558  eV     1   --> A              
     e(  6 -  6) =     -0.58921  eV     1   --> A              
     e(  7 -  7) =      0.52350  eV     1   --> A              
     e(  8 -  8) =      0.52705  eV     1   --> A              
     e(  9 -  9) =      0.62536  eV     1   --> A              
     e( 10 - 10) =      0.88922  eV     1   --> A              
     e( 11 - 11) =      0.91695  eV     1   --> A              
     e( 12 - 12) =      0.97523  eV     1   --> A              
     e( 13 - 13) =      0.99074  eV     1   --> A              
     e( 14 - 14) =      1.19882  eV     1   --> A              
     e( 15 - 15) =      1.27948  eV     1   --> A              
     e( 16 - 16) =      2.00179  eV     1   --> A              
     e( 17 - 17) =      3.44279  eV     1   --> A              
     e( 18 - 18) =      4.59973  eV     1   --> A              
     e( 19 - 19) =      6.42980  eV     1   --> A              
     e( 20 - 20) =      7.69455  eV     1   --> A              
     e( 21 - 21) =      8.73126  eV     1   --> A              
     e( 22 - 22) =      9.72006  eV     1   --> A              
     e( 23 - 23) =     12.32066  eV     1   --> A              
     e( 24 - 24) =     12.63119  eV     1   --> A              
     e( 25 - 25) =     12.66161  eV     1   --> A              
     e( 26 - 26) =     13.62673  eV     1   --> A              
     e( 27 - 27) =     13.72223  eV     1   --> A              
     e( 28 - 28) =     13.92515  eV     1   --> A              
     e( 29 - 29) =     14.61472  eV     1   --> A              
     e( 30 - 30) =     15.07327  eV     1   --> A              
     e( 31 - 31) =     15.40797  eV     1   --> A              
     e( 32 - 32) =     15.56039  eV     1   --> A              
     e( 33 - 33) =     15.77751  eV     1   --> A              
     e( 34 - 34) =     16.66558  eV     1   --> A              
     e( 35 - 35) =     17.42953  eV     1   --> A              
     e( 36 - 36) =     17.72911  eV     1   --> A              
     e( 37 - 37) =     18.16488  eV     1   --> A              
     e( 38 - 38) =     18.30087  eV     1   --> A              
     e( 39 - 39) =     19.53229  eV     1   --> A              
     e( 40 - 40) =     19.82040  eV     1   --> A              
     e( 41 - 41) =     20.56487  eV     1   --> A              
     e( 42 - 42) =     20.93677  eV     1   --> A              
     e( 43 - 43) =     21.23581  eV     1   --> A              
     e( 44 - 44) =     21.31855  eV     1   --> A              
     e( 45 - 45) =     21.50951  eV     1   --> A              
     e( 46 - 46) =     22.13418  eV     1   --> A              
     e( 47 - 47) =     22.16668  eV     1   --> A              
     e( 48 - 48) =     22.31135  eV     1   --> A              
     e( 49 - 49) =     23.13570  eV     1   --> A              
     e( 50 - 50) =     23.16253  eV     1   --> A              
     e( 51 - 51) =     23.46318  eV     1   --> A              
     e( 52 - 52) =     24.30154  eV     1   --> A              
     e( 53 - 53) =     24.74601  eV     1   --> A              
     e( 54 - 54) =     24.88206  eV     1   --> A              
     e( 55 - 55) =     25.35779  eV     1   --> A              
     e( 56 - 56) =     25.65822  eV     1   --> A              
     e( 57 - 57) =     25.93853  eV     1   --> A              
     e( 58 - 58) =     26.15628  eV     1   --> A              
     e( 59 - 59) =     26.57984  eV     1   --> A              
     e( 60 - 60) =     26.88956  eV     1   --> A              
     e( 61 - 61) =     27.48769  eV     1   --> A              
     e( 62 - 62) =     28.12386  eV     1   --> A              
     e( 63 - 63) =     29.07374  eV     1   --> A              
     e( 64 - 64) =     29.16778  eV     1   --> A              
     e( 65 - 65) =     29.97849  eV     1   --> A              
     e( 66 - 66) =     30.24137  eV     1   --> A              
     e( 67 - 67) =     30.61181  eV     1   --> A              
     e( 68 - 68) =     30.72973  eV     1   --> A              
     e( 69 - 69) =     31.61293  eV     1   --> A              
     e( 70 - 70) =     31.89988  eV     1   --> A              

 **************************************************************************

 **************************************************************************

                    xk=(   0.13476,   0.07759,   0.00000  )

     Band symmetry, C_1 (1)     point group:

     e(  1 -  1) =    -14.07070  eV     1   --> A              
     e(  2 -  2) =    -14.00351  eV     1   --> A              
     e(  3 -  3) =    -13.72447  eV     1   --> A              
     e(  4 -  4) =    -13.63829  eV     1   --> A              
     e(  5 -  5) =     -0.97742  eV     1   --> A              
     e(  6 -  6) =     -0.60434  eV     1   --> A              
     e(  7 -  7) =      0.37971  eV     1   --> A              
     e(  8 -  8) =      0.38556  eV     1   --> A              
     e(  9 -  9) =      0.55175  eV     1   --> A              
     e( 10 - 10) =      0.85205  eV     1   --> A              
     e( 11 - 11) =      0.88290  eV     1   --> A              
     e( 12 - 12) =      0.93517  eV     1   --> A              
     e( 13 - 13) =      0.95752  eV     1   --> A              
     e( 14 - 14) =      1.16918  eV     1   --> A              
     e( 15 - 15) =      1.25121  eV     1   --> A              
     e( 16 - 16) =      2.03084  eV     1   --> A              
     e( 17 - 17) =      3.57606  eV     1   --> A              
     e( 18 - 18) =      4.62832  eV     1   --> A              
     e( 19 - 19) =      6.62936  eV     1   --> A              
     e( 20 - 20) =      7.86289  eV     1   --> A              
     e( 21 - 21) =      8.79550  eV     1   --> A              
     e( 22 - 22) =      9.84218  eV     1   --> A              
     e( 23 - 23) =     12.00632  eV     1   --> A              
     e( 24 - 24) =     12.31764  eV     1   --> A              
     e( 25 - 25) =     12.58527  eV     1   --> A              
     e( 26 - 26) =     13.55340  eV     1   --> A              
     e( 27 - 27) =     13.59941  eV     1   --> A              
     e( 28 - 28) =     13.89989  eV     1   --> A              
     e( 29 - 29) =     14.46524  eV     1   --> A              
     e( 30 - 30) =     15.00979  eV     1   --> A              
     e( 31 - 31) =     15.51794  eV     1   --> A              
     e( 32 - 32) =     15.52857  eV     1   --> A              
     e( 33 - 33) =     15.88380  eV     1   --> A              
     e( 34 - 34) =     16.39438  eV     1   --> A              
     e( 35 - 35) =     17.27189  eV     1   --> A              
     e( 36 - 36) =     17.65331  eV     1   --> A              
     e( 37 - 37) =     18.10218  eV     1   --> A              
     e( 38 - 38) =     18.50769  eV     1   --> A              
     e( 39 - 39) =     19.76888  eV     1   --> A              
     e( 40 - 40) =     19.87110  eV     1   --> A              
     e( 41 - 41) =     20.63707  eV     1   --> A              
     e( 42 - 42) =     20.70854  eV     1   --> A              
     e( 43 - 43) =     21.27815  eV     1   --> A              
     e( 44 - 44) =     21.31664  eV     1   --> A              
     e( 45 - 45) =     21.40388  eV     1   --> A              
     e( 46 - 46) =     22.24547  eV     1   --> A              
     e( 47 - 47) =     22.30389  eV     1   --> A              
     e( 48 - 48) =     22.35544  eV     1   --> A              
     e( 49 - 49) =     23.17764  eV     1   --> A              
     e( 50 - 50) =     23.59324  eV     1   --> A              
     e( 51 - 51) =     23.71635  eV     1   --> A              
     e( 52 - 52) =     24.61902  eV     1   --> A              
     e( 53 - 53) =     24.74903  eV     1   --> A              
     e( 54 - 54) =     24.91439  eV     1   --> A              
     e( 55 - 55) =     25.28799  eV     1   --> A              
     e( 56 - 56) =     25.82764  eV     1   --> A              
     e( 57 - 57) =     26.20553  eV     1   --> A              
     e( 58 - 58) =     26.25646  eV     1   --> A              
     e( 59 - 59) =     26.56038  eV     1   --> A              
     e( 60 - 60) =     27.04688  eV     1   --> A              
     e( 61 - 61) =     27.53154  eV     1   --> A              
     e( 62 - 62) =     28.01380  eV     1   --> A              
     e( 63 - 63) =     29.11867  eV     1   --> A              
     e( 64 - 64) =     29.15457  eV     1   --> A              
     e( 65 - 65) =     30.10300  eV     1   --> A              
     e( 66 - 66) =     30.53260  eV     1   --> A              
     e( 67 - 67) =     30.57906  eV     1   --> A              
     e( 68 - 68) =     30.83746  eV     1   --> A              
     e( 69 - 69) =     31.71515  eV     1   --> A              
     e( 70 - 70) =     32.10371  eV     1   --> A              

 **************************************************************************

 **************************************************************************

                    xk=(   0.15401,   0.08868,   0.00000  )

     Band symmetry, C_1 (1)     point group:

     e(  1 -  1) =    -14.04447  eV     1   --> A              
     e(  2 -  2) =    -13.97860  eV     1   --> A              
     e(  3 -  3) =    -13.70105  eV     1   --> A              
     e(  4 -  4) =    -13.61599  eV     1   --> A              
     e(  5 -  5) =     -0.95757  eV     1   --> A              
     e(  6 -  6) =     -0.62254  eV     1   --> A              
     e(  7 -  7) =      0.23207  eV     1   --> A              
     e(  8 -  8) =      0.24158  eV     1   --> A              
     e(  9 -  9) =      0.43345  eV     1   --> A              
     e( 10 - 10) =      0.84884  eV     1   --> A              
     e( 11 - 11) =      0.85563  eV     1   --> A              
     e( 12 - 12) =      0.90260  eV     1   --> A              
     e( 13 - 13) =      0.92778  eV     1   --> A              
     e( 14 - 14) =      1.13423  eV     1   --> A              
     e( 15 - 15) =      1.21813  eV     1   --> A              
     e( 16 - 16) =      2.05924  eV     1   --> A              
     e( 17 - 17) =      3.70837  eV     1   --> A              
     e( 18 - 18) =      4.65682  eV     1   --> A              
     e( 19 - 19) =      6.84348  eV     1   --> A              
     e( 20 - 20) =      8.04546  eV     1   --> A              
     e( 21 - 21) =      8.86406  eV     1   --> A              
     e( 22 - 22) =      9.97293  eV     1   --> A              
     e( 23 - 23) =     11.69512  eV     1   --> A              
     e( 24 - 24) =     12.00480  eV     1   --> A              
     e( 25 - 25) =     12.49695  eV     1   --> A              
     e( 26 - 26) =     13.37800  eV     1   --> A              
     e( 27 - 27) =     13.55018  eV     1   --> A              
     e( 28 - 28) =     13.85411  eV     1   --> A              
     e( 29 - 29) =     14.30893  eV     1   --> A              
     e( 30 - 30) =     14.95656  eV     1   --> A              
     e( 31 - 31) =     15.48066  eV     1   --> A              
     e( 32 - 32) =     15.64656  eV     1   --> A              
     e( 33 - 33) =     16.00128  eV     1   --> A              
     e( 34 - 34) =     16.14097  eV     1   --> A              
     e( 35 - 35) =     17.10849  eV     1   --> A              
     e( 36 - 36) =     17.54972  eV     1   --> A              
     e( 37 - 37) =     18.08306  eV     1   --> A              
     e( 38 - 38) =     18.71416  eV     1   --> A              
     e( 39 - 39) =     19.90273  eV     1   --> A              
     e( 40 - 40) =     19.98245  eV     1   --> A              
     e( 41 - 41) =     20.44647  eV     1   --> A              
     e( 42 - 42) =     20.73524  eV     1   --> A              
     e( 43 - 43) =     21.09993  eV     1   --> A              
     e( 44 - 44) =     21.39174  eV     1   --> A              
     e( 45 - 45) =     21.50794  eV     1   --> A              
     e( 46 - 46) =     22.13821  eV     1   --> A              
     e( 47 - 47) =     22.47428  eV     1   --> A              
     e( 48 - 48) =     22.49408  eV     1   --> A              
     e( 49 - 49) =     23.30738  eV     1   --> A              
     e( 50 - 50) =     24.00756  eV     1   --> A              
     e( 51 - 51) =     24.05364  eV     1   --> A              
     e( 52 - 52) =     24.72537  eV     1   --> A              
     e( 53 - 53) =     24.75504  eV     1   --> A              
     e( 54 - 54) =     25.21468  eV     1   --> A              
     e( 55 - 55) =     25.23287  eV     1   --> A              
     e( 56 - 56) =     25.98401  eV     1   --> A              
     e( 57 - 57) =     26.20680  eV     1   --> A              
     e( 58 - 58) =     26.35024  eV     1   --> A              
     e( 59 - 59) =     26.71157  eV     1   --> A              
     e( 60 - 60) =     27.29463  eV     1   --> A              
     e( 61 - 61) =     27.61343  eV     1   --> A              
     e( 62 - 62) =     27.92467  eV     1   --> A              
     e( 63 - 63) =     29.13851  eV     1   --> A              
     e( 64 - 64) =     29.16762  eV     1   --> A              
     e( 65 - 65) =     30.22295  eV     1   --> A              
     e( 66 - 66) =     30.44351  eV     1   --> A              
     e( 67 - 67) =     30.85245  eV     1   --> A              
     e( 68 - 68) =     30.91684  eV     1   --> A              
     e( 69 - 69) =     31.86360  eV     1   --> A              
     e( 70 - 70) =     32.33484  eV     1   --> A              

 **************************************************************************

 **************************************************************************

                    xk=(   0.17326,   0.09976,   0.00000  )

     Band symmetry, C_1 (1)     point group:

     e(  1 -  1) =    -14.01568  eV     1   --> A              
     e(  2 -  2) =    -13.95128  eV     1   --> A              
     e(  3 -  3) =    -13.67540  eV     1   --> A              
     e(  4 -  4) =    -13.59156  eV     1   --> A              
     e(  5 -  5) =     -0.95456  eV     1   --> A              
     e(  6 -  6) =     -0.64200  eV     1   --> A              
     e(  7 -  7) =      0.07678  eV     1   --> A              
     e(  8 -  8) =      0.11518  eV     1   --> A              
     e(  9 -  9) =      0.29374  eV     1   --> A              
     e( 10 - 10) =      0.81247  eV     1   --> A              
     e( 11 - 11) =      0.85851  eV     1   --> A              
     e( 12 - 12) =      0.88356  eV     1   --> A              
     e( 13 - 13) =      0.91707  eV     1   --> A              
     e( 14 - 14) =      1.09379  eV     1   --> A              
     e( 15 - 15) =      1.18029  eV     1   --> A              
     e( 16 - 16) =      2.08689  eV     1   --> A              
     e( 17 - 17) =      3.83763  eV     1   --> A              
     e( 18 - 18) =      4.68467  eV     1   --> A              
     e( 19 - 19) =      7.06891  eV     1   --> A              
     e( 20 - 20) =      8.23928  eV     1   --> A              
     e( 21 - 21) =      8.93490  eV     1   --> A              
     e( 22 - 22) =     10.10553  eV     1   --> A              
     e( 23 - 23) =     11.39458  eV     1   --> A              
     e( 24 - 24) =     11.69793  eV     1   --> A              
     e( 25 - 25) =     12.39740  eV     1   --> A              
     e( 26 - 26) =     13.20214  eV     1   --> A              
     e( 27 - 27) =     13.47578  eV     1   --> A              
     e( 28 - 28) =     13.78434  eV     1   --> A              
     e( 29 - 29) =     14.15268  eV     1   --> A              
     e( 30 - 30) =     14.91050  eV     1   --> A              
     e( 31 - 31) =     15.42070  eV     1   --> A              
     e( 32 - 32) =     15.78095  eV     1   --> A              
     e( 33 - 33) =     15.92070  eV     1   --> A              
     e( 34 - 34) =     16.12872  eV     1   --> A              
     e( 35 - 35) =     16.94450  eV     1   --> A              
     e( 36 - 36) =     17.44617  eV     1   --> A              
     e( 37 - 37) =     18.10836  eV     1   --> A              
     e( 38 - 38) =     18.90483  eV     1   --> A              
     e( 39 - 39) =     19.85974  eV     1   --> A              
     e( 40 - 40) =     20.16834  eV     1   --> A              
     e( 41 - 41) =     20.22557  eV     1   --> A              
     e( 42 - 42) =     20.83078  eV     1   --> A              
     e( 43 - 43) =     20.92399  eV     1   --> A              
     e( 44 - 44) =     21.50383  eV     1   --> A              
     e( 45 - 45) =     21.64128  eV     1   --> A              
     e( 46 - 46) =     21.99008  eV     1   --> A              
     e( 47 - 47) =     22.52752  eV     1   --> A              
     e( 48 - 48) =     22.70123  eV     1   --> A              
     e( 49 - 49) =     23.57101  eV     1   --> A              
     e( 50 - 50) =     24.27404  eV     1   --> A              
     e( 51 - 51) =     24.43691  eV     1   --> A              
     e( 52 - 52) =     24.76030  eV     1   --> A              
     e( 53 - 53) =     24.89869  eV     1   --> A              
     e( 54 - 54) =     25.15009  eV     1   --> A              
     e( 55 - 55) =     25.65281  eV     1   --> A              
     e( 56 - 56) =     26.06752  eV     1   --> A              
     e( 57 - 57) =     26.11579  eV     1   --> A              
     e( 58 - 58) =     26.43071  eV     1   --> A              
     e( 59 - 59) =     26.99528  eV     1   --> A              
     e( 60 - 60) =     27.50188  eV     1   --> A              
     e( 61 - 61) =     27.75930  eV     1   --> A              
     e( 62 - 62) =     27.86766  eV     1   --> A              
     e( 63 - 63) =     29.11852  eV     1   --> A              
     e( 64 - 64) =     29.21708  eV     1   --> A              
     e( 65 - 65) =     30.33565  eV     1   --> A              
     e( 66 - 66) =     30.36531  eV     1   --> A              
     e( 67 - 67) =     30.97192  eV     1   --> A              
     e( 68 - 68) =     31.02127  eV     1   --> A              
     e( 69 - 69) =     32.07426  eV     1   --> A              
     e( 70 - 70) =     32.58228  eV     1   --> A              

 **************************************************************************

 **************************************************************************

                    xk=(   0.19251,   0.11085,   0.00000  )

     Band symmetry, C_1 (1)     point group:

     e(  1 -  1) =    -13.98467  eV     1   --> A              
     e(  2 -  2) =    -13.92186  eV     1   --> A              
     e(  3 -  3) =    -13.64785  eV     1   --> A              
     e(  4 -  4) =    -13.56530  eV     1   --> A              
     e(  5 -  5) =     -0.97521  eV     1   --> A              
     e(  6 -  6) =     -0.66517  eV     1   --> A              
     e(  7 -  7) =     -0.07934  eV     1   --> A              
     e(  8 -  8) =      0.01537  eV     1   --> A              
     e(  9 -  9) =      0.14713  eV     1   --> A              
     e( 10 - 10) =      0.76843  eV     1   --> A              
     e( 11 - 11) =      0.82563  eV     1   --> A              
     e( 12 - 12) =      0.88350  eV     1   --> A              
     e( 13 - 13) =      0.94751  eV     1   --> A              
     e( 14 - 14) =      1.04800  eV     1   --> A              
     e( 15 - 15) =      1.13828  eV     1   --> A              
     e( 16 - 16) =      2.11366  eV     1   --> A              
     e( 17 - 17) =      3.96231  eV     1   --> A              
     e( 18 - 18) =      4.71173  eV     1   --> A              
     e( 19 - 19) =      7.30298  eV     1   --> A              
     e( 20 - 20) =      8.44172  eV     1   --> A              
     e( 21 - 21) =      9.00583  eV     1   --> A              
     e( 22 - 22) =     10.22565  eV     1   --> A              
     e( 23 - 23) =     11.11678  eV     1   --> A              
     e( 24 - 24) =     11.40290  eV     1   --> A              
     e( 25 - 25) =     12.28826  eV     1   --> A              
     e( 26 - 26) =     13.03052  eV     1   --> A              
     e( 27 - 27) =     13.37626  eV     1   --> A              
     e( 28 - 28) =     13.68973  eV     1   --> A              
     e( 29 - 29) =     14.00158  eV     1   --> A              
     e( 30 - 30) =     14.86919  eV     1   --> A              
     e( 31 - 31) =     15.32029  eV     1   --> A              
     e( 32 - 32) =     15.76120  eV     1   --> A              
     e( 33 - 33) =     15.92143  eV     1   --> A              
     e( 34 - 34) =     16.26117  eV     1   --> A              
     e( 35 - 35) =     16.78533  eV     1   --> A              
     e( 36 - 36) =     17.36845  eV     1   --> A              
     e( 37 - 37) =     18.16947  eV     1   --> A              
     e( 38 - 38) =     19.07822  eV     1   --> A              
     e( 39 - 39) =     19.65707  eV     1   --> A              
     e( 40 - 40) =     20.11882  eV     1   --> A              
     e( 41 - 41) =     20.33734  eV     1   --> A              
     e( 42 - 42) =     20.78183  eV     1   --> A              
     e( 43 - 43) =     20.90339  eV     1   --> A              
     e( 44 - 44) =     21.61170  eV     1   --> A              
     e( 45 - 45) =     21.80786  eV     1   --> A              
     e( 46 - 46) =     21.83374  eV     1   --> A              
     e( 47 - 47) =     22.52485  eV     1   --> A              
     e( 48 - 48) =     22.95637  eV     1   --> A              
     e( 49 - 49) =     23.90748  eV     1   --> A              
     e( 50 - 50) =     24.37776  eV     1   --> A              
     e( 51 - 51) =     24.72787  eV     1   --> A              
     e( 52 - 52) =     24.85270  eV     1   --> A              
     e( 53 - 53) =     25.12726  eV     1   --> A              
     e( 54 - 54) =     25.19896  eV     1   --> A              
     e( 55 - 55) =     25.95557  eV     1   --> A              
     e( 56 - 56) =     26.11392  eV     1   --> A              
     e( 57 - 57) =     26.21016  eV     1   --> A              
     e( 58 - 58) =     26.50001  eV     1   --> A              
     e( 59 - 59) =     27.25257  eV     1   --> A              
     e( 60 - 60) =     27.65906  eV     1   --> A              
     e( 61 - 61) =     27.84895  eV     1   --> A              
     e( 62 - 62) =     27.95198  eV     1   --> A              
     e( 63 - 63) =     29.10117  eV     1   --> A              
     e( 64 - 64) =     29.26393  eV     1   --> A              
     e( 65 - 65) =     30.29121  eV     1   --> A              
     e( 66 - 66) =     30.45656  eV     1   --> A              
     e( 67 - 67) =     31.03419  eV     1   --> A              
     e( 68 - 68) =     31.08584  eV     1   --> A              
     e( 69 - 69) =     32.31060  eV     1   --> A              
     e( 70 - 70) =     32.56423  eV     1   --> A              

 **************************************************************************

 **************************************************************************

                    xk=(   0.21177,   0.12193,   0.00000  )

     Band symmetry, C_1 (1)     point group:

     e(  1 -  1) =    -13.95183  eV     1   --> A              
     e(  2 -  2) =    -13.89070  eV     1   --> A              
     e(  3 -  3) =    -13.61875  eV     1   --> A              
     e(  4 -  4) =    -13.53755  eV     1   --> A              
     e(  5 -  5) =     -1.01964  eV     1   --> A              
     e(  6 -  6) =     -0.70255  eV     1   --> A              
     e(  7 -  7) =     -0.23329  eV     1   --> A              
     e(  8 -  8) =     -0.04638  eV     1   --> A              
     e(  9 -  9) =      0.00289  eV     1   --> A              
     e( 10 - 10) =      0.71634  eV     1   --> A              
     e( 11 - 11) =      0.77874  eV     1   --> A              
     e( 12 - 12) =      0.90153  eV     1   --> A              
     e( 13 - 13) =      0.98218  eV     1   --> A              
     e( 14 - 14) =      1.00396  eV     1   --> A              
     e( 15 - 15) =      1.09555  eV     1   --> A              
     e( 16 - 16) =      2.13942  eV     1   --> A              
     e( 17 - 17) =      4.08110  eV     1   --> A              
     e( 18 - 18) =      4.73823  eV     1   --> A              
     e( 19 - 19) =      7.54356  eV     1   --> A              
     e( 20 - 20) =      8.65052  eV     1   --> A              
     e( 21 - 21) =      9.07437  eV     1   --> A              
     e( 22 - 22) =     10.29364  eV     1   --> A              
     e( 23 - 23) =     10.88981  eV     1   --> A              
     e( 24 - 24) =     11.13366  eV     1   --> A              
     e( 25 - 25) =     12.17207  eV     1   --> A              
     e( 26 - 26) =     12.86639  eV     1   --> A              
     e( 27 - 27) =     13.25502  eV     1   --> A              
     e( 28 - 28) =     13.57250  eV     1   --> A              
     e( 29 - 29) =     13.85890  eV     1   --> A              
     e( 30 - 30) =     14.83103  eV     1   --> A              
     e( 31 - 31) =     15.16179  eV     1   --> A              
     e( 32 - 32) =     15.67197  eV     1   --> A              
     e( 33 - 33) =     16.06270  eV     1   --> A              
     e( 34 - 34) =     16.39582  eV     1   --> A              
     e( 35 - 35) =     16.64137  eV     1   --> A              
     e( 36 - 36) =     17.33238  eV     1   --> A              
     e( 37 - 37) =     18.25807  eV     1   --> A              
     e( 38 - 38) =     19.23713  eV     1   --> A              
     e( 39 - 39) =     19.36852  eV     1   --> A              
     e( 40 - 40) =     20.04070  eV     1   --> A              
     e( 41 - 41) =     20.49034  eV     1   --> A              
     e( 42 - 42) =     20.70577  eV     1   --> A              
     e( 43 - 43) =     20.93396  eV     1   --> A              
     e( 44 - 44) =     21.67385  eV     1   --> A              
     e( 45 - 45) =     21.70240  eV     1   --> A              
     e( 46 - 46) =     22.00943  eV     1   --> A              
     e( 47 - 47) =     22.51601  eV     1   --> A              
     e( 48 - 48) =     23.24242  eV     1   --> A              
     e( 49 - 49) =     24.23404  eV     1   --> A              
     e( 50 - 50) =     24.44630  eV     1   --> A              
     e( 51 - 51) =     24.76470  eV     1   --> A              
     e( 52 - 52) =     24.97312  eV     1   --> A              
     e( 53 - 53) =     25.38094  eV     1   --> A              
     e( 54 - 54) =     25.39230  eV     1   --> A              
     e( 55 - 55) =     26.07664  eV     1   --> A              
     e( 56 - 56) =     26.27264  eV     1   --> A              
     e( 57 - 57) =     26.53021  eV     1   --> A              
     e( 58 - 58) =     26.56085  eV     1   --> A              
     e( 59 - 59) =     27.44566  eV     1   --> A              
     e( 60 - 60) =     27.81203  eV     1   --> A              
     e( 61 - 61) =     27.87192  eV     1   --> A              
     e( 62 - 62) =     28.11603  eV     1   --> A              
     e( 63 - 63) =     29.11012  eV     1   --> A              
     e( 64 - 64) =     29.30358  eV     1   --> A              
     e( 65 - 65) =     30.25162  eV     1   --> A              
     e( 66 - 66) =     30.55751  eV     1   --> A              
     e( 67 - 67) =     31.07279  eV     1   --> A              
     e( 68 - 68) =     31.14805  eV     1   --> A              
     e( 69 - 69) =     32.52686  eV     1   --> A              
     e( 70 - 70) =     32.55502  eV     1   --> A              

 **************************************************************************

 **************************************************************************

                    xk=(   0.23102,   0.13302,   0.00000  )

     Band symmetry, C_1 (1)     point group:

     e(  1 -  1) =    -13.91755  eV     1   --> A              
     e(  2 -  2) =    -13.85819  eV     1   --> A              
     e(  3 -  3) =    -13.58846  eV     1   --> A              
     e(  4 -  4) =    -13.50863  eV     1   --> A              
     e(  5 -  5) =     -1.08213  eV     1   --> A              
     e(  6 -  6) =     -0.76375  eV     1   --> A              
     e(  7 -  7) =     -0.38273  eV     1   --> A              
     e(  8 -  8) =     -0.14866  eV     1   --> A              
     e(  9 -  9) =     -0.04849  eV     1   --> A              
     e( 10 - 10) =      0.65705  eV     1   --> A              
     e( 11 - 11) =      0.72464  eV     1   --> A              
     e( 12 - 12) =      0.92564  eV     1   --> A              
     e( 13 - 13) =      0.94523  eV     1   --> A              
     e( 14 - 14) =      1.00642  eV     1   --> A              
     e( 15 - 15) =      1.08318  eV     1   --> A              
     e( 16 - 16) =      2.16399  eV     1   --> A              
     e( 17 - 17) =      4.19283  eV     1   --> A              
     e( 18 - 18) =      4.76485  eV     1   --> A              
     e( 19 - 19) =      7.78890  eV     1   --> A              
     e( 20 - 20) =      8.86375  eV     1   --> A              
     e( 21 - 21) =      9.13749  eV     1   --> A              
     e( 22 - 22) =     10.22943  eV     1   --> A              
     e( 23 - 23) =     10.72241  eV     1   --> A              
     e( 24 - 24) =     10.96336  eV     1   --> A              
     e( 25 - 25) =     12.05210  eV     1   --> A              
     e( 26 - 26) =     12.71181  eV     1   --> A              
     e( 27 - 27) =     13.11742  eV     1   --> A              
     e( 28 - 28) =     13.43750  eV     1   --> A              
     e( 29 - 29) =     13.72652  eV     1   --> A              
     e( 30 - 30) =     14.79503  eV     1   --> A              
     e( 31 - 31) =     14.96824  eV     1   --> A              
     e( 32 - 32) =     15.61405  eV     1   --> A              
     e( 33 - 33) =     16.19974  eV     1   --> A              
     e( 34 - 34) =     16.52724  eV     1   --> A              
     e( 35 - 35) =     16.53146  eV     1   --> A              
     e( 36 - 36) =     17.34192  eV     1   --> A              
     e( 37 - 37) =     18.36767  eV     1   --> A              
     e( 38 - 38) =     19.06228  eV     1   --> A              
     e( 39 - 39) =     19.38485  eV     1   --> A              
     e( 40 - 40) =     19.91875  eV     1   --> A              
     e( 41 - 41) =     20.63576  eV     1   --> A              
     e( 42 - 42) =     20.69717  eV     1   --> A              
     e( 43 - 43) =     20.93087  eV     1   --> A              
     e( 44 - 44) =     21.53653  eV     1   --> A              
     e( 45 - 45) =     21.76039  eV     1   --> A              
     e( 46 - 46) =     22.22461  eV     1   --> A              
     e( 47 - 47) =     22.52072  eV     1   --> A              
     e( 48 - 48) =     23.53885  eV     1   --> A              
     e( 49 - 49) =     24.39700  eV     1   --> A              
     e( 50 - 50) =     24.52830  eV     1   --> A              
     e( 51 - 51) =     24.92375  eV     1   --> A              
     e( 52 - 52) =     24.96922  eV     1   --> A              
     e( 53 - 53) =     25.41503  eV     1   --> A              
     e( 54 - 54) =     25.80862  eV     1   --> A              
     e( 55 - 55) =     26.30879  eV     1   --> A              
     e( 56 - 56) =     26.39514  eV     1   --> A              
     e( 57 - 57) =     26.62280  eV     1   --> A              
     e( 58 - 58) =     26.92819  eV     1   --> A              
     e( 59 - 59) =     27.57609  eV     1   --> A              
     e( 60 - 60) =     27.92101  eV     1   --> A              
     e( 61 - 61) =     27.97076  eV     1   --> A              
     e( 62 - 62) =     28.20870  eV     1   --> A              
     e( 63 - 63) =     29.18385  eV     1   --> A              
     e( 64 - 64) =     29.33140  eV     1   --> A              
     e( 65 - 65) =     30.24519  eV     1   --> A              
     e( 66 - 66) =     30.65862  eV     1   --> A              
     e( 67 - 67) =     31.01111  eV     1   --> A              
     e( 68 - 68) =     31.32204  eV     1   --> A              
     e( 69 - 69) =     32.57170  eV     1   --> A              
     e( 70 - 70) =     32.71243  eV     1   --> A              

 **************************************************************************

 **************************************************************************

                    xk=(   0.25027,   0.14410,   0.00000  )

     Band symmetry, C_1 (1)     point group:

     e(  1 -  1) =    -13.88226  eV     1   --> A              
     e(  2 -  2) =    -13.82474  eV     1   --> A              
     e(  3 -  3) =    -13.55738  eV     1   --> A              
     e(  4 -  4) =    -13.47893  eV     1   --> A              
     e(  5 -  5) =     -1.15579  eV     1   --> A              
     e(  6 -  6) =     -0.84611  eV     1   --> A              
     e(  7 -  7) =     -0.52576  eV     1   --> A              
     e(  8 -  8) =     -0.28547  eV     1   --> A              
     e(  9 -  9) =     -0.01599  eV     1   --> A              
     e( 10 - 10) =      0.59109  eV     1   --> A              
     e( 11 - 11) =      0.66439  eV     1   --> A              
     e( 12 - 12) =      0.86863  eV     1   --> A              
     e( 13 - 13) =      0.95953  eV     1   --> A              
     e( 14 - 14) =      0.98603  eV     1   --> A              
     e( 15 - 15) =      1.12965  eV     1   --> A              
     e( 16 - 16) =      2.18718  eV     1   --> A              
     e( 17 - 17) =      4.29627  eV     1   --> A              
     e( 18 - 18) =      4.79272  eV     1   --> A              
     e( 19 - 19) =      8.03752  eV     1   --> A              
     e( 20 - 20) =      9.07968  eV     1   --> A              
     e( 21 - 21) =      9.19089  eV     1   --> A              
     e( 22 - 22) =     10.04140  eV     1   --> A              
     e( 23 - 23) =     10.50855  eV     1   --> A              
     e( 24 - 24) =     10.99202  eV     1   --> A              
     e( 25 - 25) =     11.93207  eV     1   --> A              
     e( 26 - 26) =     12.56801  eV     1   --> A              
     e( 27 - 27) =     12.96915  eV     1   --> A              
     e( 28 - 28) =     13.29118  eV     1   --> A              
     e( 29 - 29) =     13.60524  eV     1   --> A              
     e( 30 - 30) =     14.75918  eV     1   --> A              
     e( 31 - 31) =     14.76761  eV     1   --> A              
     e( 32 - 32) =     15.54446  eV     1   --> A              
     e( 33 - 33) =     16.32603  eV     1   --> A              
     e( 34 - 34) =     16.47426  eV     1   --> A              
     e( 35 - 35) =     16.65147  eV     1   --> A              
     e( 36 - 36) =     17.39244  eV     1   --> A              
     e( 37 - 37) =     18.49286  eV     1   --> A              
     e( 38 - 38) =     18.75867  eV     1   --> A              
     e( 39 - 39) =     19.52280  eV     1   --> A              
     e( 40 - 40) =     19.76032  eV     1   --> A              
     e( 41 - 41) =     20.73407  eV     1   --> A              
     e( 42 - 42) =     20.77112  eV     1   --> A              
     e( 43 - 43) =     20.91145  eV     1   --> A              
     e( 44 - 44) =     21.41798  eV     1   --> A              
     e( 45 - 45) =     21.79176  eV     1   --> A              
     e( 46 - 46) =     22.44298  eV     1   --> A              
     e( 47 - 47) =     22.54782  eV     1   --> A              
     e( 48 - 48) =     23.81595  eV     1   --> A              
     e( 49 - 49) =     24.37681  eV     1   --> A              
     e( 50 - 50) =     24.62013  eV     1   --> A              
     e( 51 - 51) =     24.92090  eV     1   --> A              
     e( 52 - 52) =     25.27811  eV     1   --> A              
     e( 53 - 53) =     25.45027  eV     1   --> A              
     e( 54 - 54) =     26.19907  eV     1   --> A              
     e( 55 - 55) =     26.34550  eV     1   --> A              
     e( 56 - 56) =     26.71525  eV     1   --> A              
     e( 57 - 57) =     26.73866  eV     1   --> A              
     e( 58 - 58) =     27.26618  eV     1   --> A              
     e( 59 - 59) =     27.66943  eV     1   --> A              
     e( 60 - 60) =     28.00381  eV     1   --> A              
     e( 61 - 61) =     28.10039  eV     1   --> A              
     e( 62 - 62) =     28.24758  eV     1   --> A              
     e( 63 - 63) =     29.33210  eV     1   --> A              
     e( 64 - 64) =     29.35543  eV     1   --> A              
     e( 65 - 65) =     30.27520  eV     1   --> A              
     e( 66 - 66) =     30.79137  eV     1   --> A              
     e( 67 - 67) =     30.91058  eV     1   --> A              
     e( 68 - 68) =     31.53723  eV     1   --> A              
     e( 69 - 69) =     32.62733  eV     1   --> A              
     e( 70 - 70) =     32.87204  eV     1   --> A              

 **************************************************************************

 **************************************************************************

                    xk=(   0.26952,   0.15519,   0.00000  )

     Band symmetry, C_1 (1)     point group:

     e(  1 -  1) =    -13.84640  eV     1   --> A              
     e(  2 -  2) =    -13.79076  eV     1   --> A              
     e(  3 -  3) =    -13.52589  eV     1   --> A              
     e(  4 -  4) =    -13.44882  eV     1   --> A              
     e(  5 -  5) =     -1.23486  eV     1   --> A              
     e(  6 -  6) =     -0.93928  eV     1   --> A              
     e(  7 -  7) =     -0.66063  eV     1   --> A              
     e(  8 -  8) =     -0.41535  eV     1   --> A              
     e(  9 -  9) =      0.04846  eV     1   --> A              
     e( 10 - 10) =      0.51885  eV     1   --> A              
     e( 11 - 11) =      0.59834  eV     1   --> A              
     e( 12 - 12) =      0.79808  eV     1   --> A              
     e( 13 - 13) =      0.89695  eV     1   --> A              
     e( 14 - 14) =      1.04415  eV     1   --> A              
     e( 15 - 15) =      1.19033  eV     1   --> A              
     e( 16 - 16) =      2.20873  eV     1   --> A              
     e( 17 - 17) =      4.39014  eV     1   --> A              
     e( 18 - 18) =      4.82337  eV     1   --> A              
     e( 19 - 19) =      8.28828  eV     1   --> A              
     e( 20 - 20) =      9.22519  eV     1   --> A              
     e( 21 - 21) =      9.29831  eV     1   --> A              
     e( 22 - 22) =      9.81551  eV     1   --> A              
     e( 23 - 23) =     10.28210  eV     1   --> A              
     e( 24 - 24) =     11.10498  eV     1   --> A              
     e( 25 - 25) =     11.81567  eV     1   --> A              
     e( 26 - 26) =     12.43577  eV     1   --> A              
     e( 27 - 27) =     12.81512  eV     1   --> A              
     e( 28 - 28) =     13.14038  eV     1   --> A              
     e( 29 - 29) =     13.49526  eV     1   --> A              
     e( 30 - 30) =     14.56947  eV     1   --> A              
     e( 31 - 31) =     14.72765  eV     1   --> A              
     e( 32 - 32) =     15.44532  eV     1   --> A              
     e( 33 - 33) =     16.43389  eV     1   --> A              
     e( 34 - 34) =     16.48066  eV     1   --> A              
     e( 35 - 35) =     16.75910  eV     1   --> A              
     e( 36 - 36) =     17.47473  eV     1   --> A              
     e( 37 - 37) =     18.46756  eV     1   --> A              
     e( 38 - 38) =     18.62896  eV     1   --> A              
     e( 39 - 39) =     19.58415  eV     1   --> A              
     e( 40 - 40) =     19.65176  eV     1   --> A              
     e( 41 - 41) =     20.79292  eV     1   --> A              
     e( 42 - 42) =     20.82789  eV     1   --> A              
     e( 43 - 43) =     20.96186  eV     1   --> A              
     e( 44 - 44) =     21.32435  eV     1   --> A              
     e( 45 - 45) =     21.79506  eV     1   --> A              
     e( 46 - 46) =     22.59703  eV     1   --> A              
     e( 47 - 47) =     22.65924  eV     1   --> A              
     e( 48 - 48) =     24.03691  eV     1   --> A              
     e( 49 - 49) =     24.30220  eV     1   --> A              
     e( 50 - 50) =     24.71700  eV     1   --> A              
     e( 51 - 51) =     24.88874  eV     1   --> A              
     e( 52 - 52) =     25.57384  eV     1   --> A              
     e( 53 - 53) =     25.62695  eV     1   --> A              
     e( 54 - 54) =     26.34932  eV     1   --> A              
     e( 55 - 55) =     26.48901  eV     1   --> A              
     e( 56 - 56) =     26.94578  eV     1   --> A              
     e( 57 - 57) =     26.98208  eV     1   --> A              
     e( 58 - 58) =     27.48851  eV     1   --> A              
     e( 59 - 59) =     27.76887  eV     1   --> A              
     e( 60 - 60) =     28.10913  eV     1   --> A              
     e( 61 - 61) =     28.19644  eV     1   --> A              
     e( 62 - 62) =     28.34037  eV     1   --> A              
     e( 63 - 63) =     29.33821  eV     1   --> A              
     e( 64 - 64) =     29.57428  eV     1   --> A              
     e( 65 - 65) =     30.33729  eV     1   --> A              
     e( 66 - 66) =     30.77723  eV     1   --> A              
     e( 67 - 67) =     30.98963  eV     1   --> A              
     e( 68 - 68) =     31.75784  eV     1   --> A              
     e( 69 - 69) =     32.73083  eV     1   --> A              
     e( 70 - 70) =     33.01509  eV     1   --> A              

 **************************************************************************

 **************************************************************************

                    xk=(   0.28877,   0.16627,   0.00000  )

     Band symmetry, C_1 (1)     point group:

     e(  1 -  1) =    -13.81044  eV     1   --> A              
     e(  2 -  2) =    -13.75669  eV     1   --> A              
     e(  3 -  3) =    -13.49442  eV     1   --> A              
     e(  4 -  4) =    -13.41869  eV     1   --> A              
     e(  5 -  5) =     -1.31484  eV     1   --> A              
     e(  6 -  6) =     -1.03387  eV     1   --> A              
     e(  7 -  7) =     -0.78589  eV     1   --> A              
     e(  8 -  8) =     -0.53585  eV     1   --> A              
     e(  9 -  9) =      0.13267  eV     1   --> A              
     e( 10 - 10) =      0.44109  eV     1   --> A              
     e( 11 - 11) =      0.52668  eV     1   --> A              
     e( 12 - 12) =      0.72102  eV     1   --> A              
     e( 13 - 13) =      0.82715  eV     1   --> A              
     e( 14 - 14) =      1.11062  eV     1   --> A              
     e( 15 - 15) =      1.25513  eV     1   --> A              
     e( 16 - 16) =      2.22834  eV     1   --> A              
     e( 17 - 17) =      4.47328  eV     1   --> A              
     e( 18 - 18) =      4.85847  eV     1   --> A              
     e( 19 - 19) =      8.54018  eV     1   --> A              
     e( 20 - 20) =      9.22583  eV     1   --> A              
     e( 21 - 21) =      9.51568  eV     1   --> A              
     e( 22 - 22) =      9.59468  eV     1   --> A              
     e( 23 - 23) =     10.08106  eV     1   --> A              
     e( 24 - 24) =     11.23481  eV     1   --> A              
     e( 25 - 25) =     11.70623  eV     1   --> A              
     e( 26 - 26) =     12.31566  eV     1   --> A              
     e( 27 - 27) =     12.65911  eV     1   --> A              
     e( 28 - 28) =     12.99165  eV     1   --> A              
     e( 29 - 29) =     13.39636  eV     1   --> A              
     e( 30 - 30) =     14.38720  eV     1   --> A              
     e( 31 - 31) =     14.69522  eV     1   --> A              
     e( 32 - 32) =     15.32238  eV     1   --> A              
     e( 33 - 33) =     16.51507  eV     1   --> A              
     e( 34 - 34) =     16.54122  eV     1   --> A              
     e( 35 - 35) =     16.84116  eV     1   --> A              
     e( 36 - 36) =     17.57766  eV     1   --> A              
     e( 37 - 37) =     18.19879  eV     1   --> A              
     e( 38 - 38) =     18.77087  eV     1   --> A              
     e( 39 - 39) =     19.40677  eV     1   --> A              
     e( 40 - 40) =     19.76550  eV     1   --> A              
     e( 41 - 41) =     20.79563  eV     1   --> A              
     e( 42 - 42) =     20.87160  eV     1   --> A              
     e( 43 - 43) =     21.10030  eV     1   --> A              
     e( 44 - 44) =     21.25755  eV     1   --> A              
     e( 45 - 45) =     21.77219  eV     1   --> A              
     e( 46 - 46) =     22.67071  eV     1   --> A              
     e( 47 - 47) =     22.86477  eV     1   --> A              
     e( 48 - 48) =     24.17047  eV     1   --> A              
     e( 49 - 49) =     24.22078  eV     1   --> A              
     e( 50 - 50) =     24.83505  eV     1   --> A              
     e( 51 - 51) =     24.85300  eV     1   --> A              
     e( 52 - 52) =     25.78696  eV     1   --> A              
     e( 53 - 53) =     25.89201  eV     1   --> A              
     e( 54 - 54) =     26.44640  eV     1   --> A              
     e( 55 - 55) =     26.59806  eV     1   --> A              
     e( 56 - 56) =     27.04975  eV     1   --> A              
     e( 57 - 57) =     27.29976  eV     1   --> A              
     e( 58 - 58) =     27.54187  eV     1   --> A              
     e( 59 - 59) =     27.92892  eV     1   --> A              
     e( 60 - 60) =     28.24676  eV     1   --> A              
     e( 61 - 61) =     28.33724  eV     1   --> A              
     e( 62 - 62) =     28.52007  eV     1   --> A              
     e( 63 - 63) =     29.32482  eV     1   --> A              
     e( 64 - 64) =     29.84299  eV     1   --> A              
     e( 65 - 65) =     30.40153  eV     1   --> A              
     e( 66 - 66) =     30.65645  eV     1   --> A              
     e( 67 - 67) =     31.24855  eV     1   --> A              
     e( 68 - 68) =     31.95882  eV     1   --> A              
     e( 69 - 69) =     32.88666  eV     1   --> A              
     e( 70 - 70) =     33.15179  eV     1   --> A              

 **************************************************************************

 **************************************************************************

                    xk=(   0.30802,   0.17736,   0.00000  )

     Band symmetry, C_1 (1)     point group:

     e(  1 -  1) =    -13.77482  eV     1   --> A              
     e(  2 -  2) =    -13.72296  eV     1   --> A              
     e(  3 -  3) =    -13.46336  eV     1   --> A              
     e(  4 -  4) =    -13.38890  eV     1   --> A              
     e(  5 -  5) =     -1.39223  eV     1   --> A              
     e(  6 -  6) =     -1.12368  eV     1   --> A              
     e(  7 -  7) =     -0.90018  eV     1   --> A              
     e(  8 -  8) =     -0.64536  eV     1   --> A              
     e(  9 -  9) =      0.22539  eV     1   --> A              
     e( 10 - 10) =      0.36200  eV     1   --> A              
     e( 11 - 11) =      0.44967  eV     1   --> A              
     e( 12 - 12) =      0.63809  eV     1   --> A              
     e( 13 - 13) =      0.75171  eV     1   --> A              
     e( 14 - 14) =      1.18245  eV     1   --> A              
     e( 15 - 15) =      1.32191  eV     1   --> A              
     e( 16 - 16) =      2.24586  eV     1   --> A              
[...]
     e( 61 - 61) =     27.45243  eV     1   --> A'             
     e( 62 - 62) =     28.40464  eV     1   --> A'             
     e( 63 - 63) =     28.99333  eV     1   --> A''            
     e( 64 - 64) =     29.23010  eV     1   --> A'             
     e( 65 - 65) =     29.40185  eV     1   --> A'             
     e( 66 - 66) =     29.63981  eV     1   --> A''            
     e( 67 - 67) =     30.38120  eV     1   --> A'             
     e( 68 - 68) =     30.59921  eV     1   --> A'             
     e( 69 - 69) =     31.45848  eV     1   --> A'             
     e( 70 - 70) =     31.60937  eV     1   --> A''            

 **************************************************************************

 **************************************************************************

                    xk=(   0.05775,   0.00000,   0.00000  )

     Band symmetry, C_s (m)     point group:

     e(  1 -  1) =    -14.14880  eV     1   --> A'             
     e(  2 -  2) =    -14.07772  eV     1   --> A'             
     e(  3 -  3) =    -13.79449  eV     1   --> A'             
     e(  4 -  4) =    -13.70491  eV     1   --> A'             
     e(  5 -  5) =     -1.09505  eV     1   --> A'             
     e(  6 -  6) =     -0.56763  eV     1   --> A'             
     e(  7 -  7) =      0.60524  eV     1   --> A'             
     e(  8 -  8) =      0.91858  eV     1   --> A'             
     e(  9 -  9) =      0.93993  eV     1   --> A'             
     e( 10 - 10) =      0.99117  eV     1   --> A''            
     e( 11 - 11) =      1.03418  eV     1   --> A''            
     e( 12 - 12) =      1.17018  eV     1   --> A'             
     e( 13 - 13) =      1.24760  eV     1   --> A'             
     e( 14 - 14) =      1.26193  eV     1   --> A''            
     e( 15 - 15) =      1.34040  eV     1   --> A''            
     e( 16 - 16) =      1.90507  eV     1   --> A'             
     e( 17 - 17) =      3.03296  eV     1   --> A'             
     e( 18 - 18) =      4.51674  eV     1   --> A'             
     e( 19 - 19) =      5.91654  eV     1   --> A'             
     e( 20 - 20) =      7.27334  eV     1   --> A'             
     e( 21 - 21) =      8.56910  eV     1   --> A'             
     e( 22 - 22) =      9.41780  eV     1   --> A'             
     e( 23 - 23) =     12.82969  eV     1   --> A'             
     e( 24 - 24) =     13.29806  eV     1   --> A'             
     e( 25 - 25) =     13.60045  eV     1   --> A'             
     e( 26 - 26) =     13.62396  eV     1   --> A''            
     e( 27 - 27) =     13.92311  eV     1   --> A''            
     e( 28 - 28) =     14.15197  eV     1   --> A'             
     e( 29 - 29) =     14.99247  eV     1   --> A'             
     e( 30 - 30) =     15.13352  eV     1   --> A''            
     e( 31 - 31) =     15.36546  eV     1   --> A'             
     e( 32 - 32) =     15.51942  eV     1   --> A''            
     e( 33 - 33) =     15.53892  eV     1   --> A'             
     e( 34 - 34) =     17.15796  eV     1   --> A'             
     e( 35 - 35) =     17.71164  eV     1   --> A'             
     e( 36 - 36) =     17.92735  eV     1   --> A''            
     e( 37 - 37) =     18.16674  eV     1   --> A'             
     e( 38 - 38) =     18.45457  eV     1   --> A''            
     e( 39 - 39) =     18.74270  eV     1   --> A'             
     e( 40 - 40) =     19.65991  eV     1   --> A'             
     e( 41 - 41) =     20.62673  eV     1   --> A'             
     e( 42 - 42) =     20.87013  eV     1   --> A'             
     e( 43 - 43) =     21.10808  eV     1   --> A''            
     e( 44 - 44) =     21.36711  eV     1   --> A'             
     e( 45 - 45) =     21.69014  eV     1   --> A'             
     e( 46 - 46) =     21.71293  eV     1   --> A''            
     e( 47 - 47) =     21.84262  eV     1   --> A'             
     e( 48 - 48) =     22.28082  eV     1   --> A''            
     e( 49 - 49) =     22.30519  eV     1   --> A'             
     e( 50 - 50) =     23.18091  eV     1   --> A'             
     e( 51 - 51) =     23.24201  eV     1   --> A''            
     e( 52 - 52) =     23.26692  eV     1   --> A'             
     e( 53 - 53) =     24.67281  eV     1   --> A'             
     e( 54 - 54) =     24.81390  eV     1   --> A'             
     e( 55 - 55) =     25.03838  eV     1   --> A''            
     e( 56 - 56) =     25.37273  eV     1   --> A'             
     e( 57 - 57) =     25.65480  eV     1   --> A'             
     e( 58 - 58) =     25.82587  eV     1   --> A''            
     e( 59 - 59) =     25.97337  eV     1   --> A'             
     e( 60 - 60) =     27.37432  eV     1   --> A''            
     e( 61 - 61) =     27.49479  eV     1   --> A'             
     e( 62 - 62) =     28.47780  eV     1   --> A'             
     e( 63 - 63) =     28.96427  eV     1   --> A''            
     e( 64 - 64) =     29.18733  eV     1   --> A'             
     e( 65 - 65) =     29.27721  eV     1   --> A'             
     e( 66 - 66) =     29.52489  eV     1   --> A''            
     e( 67 - 67) =     30.26326  eV     1   --> A'             
     e( 68 - 68) =     30.51777  eV     1   --> A'             
     e( 69 - 69) =     31.44558  eV     1   --> A'             
     e( 70 - 70) =     31.58567  eV     1   --> A''            

 **************************************************************************

 **************************************************************************

                    xk=(   0.03850,   0.00000,   0.00000  )

     Band symmetry, C_s (m)     point group:

     e(  1 -  1) =    -14.15605  eV     1   --> A'             
     e(  2 -  2) =    -14.08461  eV     1   --> A'             
     e(  3 -  3) =    -13.80102  eV     1   --> A'             
     e(  4 -  4) =    -13.71111  eV     1   --> A'             
     e(  5 -  5) =     -1.10844  eV     1   --> A'             
     e(  6 -  6) =     -0.56684  eV     1   --> A'             
     e(  7 -  7) =      0.59756  eV     1   --> A'             
     e(  8 -  8) =      0.97064  eV     1   --> A'             
     e(  9 -  9) =      0.99981  eV     1   --> A''            
     e( 10 - 10) =      1.00091  eV     1   --> A'             
     e( 11 - 11) =      1.04239  eV     1   --> A''            
     e( 12 - 12) =      1.22626  eV     1   --> A'             
     e( 13 - 13) =      1.26938  eV     1   --> A''            
     e( 14 - 14) =      1.30611  eV     1   --> A'             
     e( 15 - 15) =      1.34773  eV     1   --> A''            
     e( 16 - 16) =      1.88587  eV     1   --> A'             
     e( 17 - 17) =      2.96051  eV     1   --> A'             
     e( 18 - 18) =      4.50356  eV     1   --> A'             
     e( 19 - 19) =      5.84217  eV     1   --> A'             
     e( 20 - 20) =      7.21421  eV     1   --> A'             
     e( 21 - 21) =      8.54643  eV     1   --> A'             
     e( 22 - 22) =      9.37637  eV     1   --> A'             
     e( 23 - 23) =     12.85073  eV     1   --> A'             
     e( 24 - 24) =     13.47493  eV     1   --> A'             
     e( 25 - 25) =     13.61813  eV     1   --> A''            
     e( 26 - 26) =     13.77496  eV     1   --> A'             
     e( 27 - 27) =     13.91672  eV     1   --> A''            
     e( 28 - 28) =     14.20864  eV     1   --> A'             
     e( 29 - 29) =     15.04613  eV     1   --> A'             
     e( 30 - 30) =     15.09853  eV     1   --> A''            
     e( 31 - 31) =     15.42615  eV     1   --> A'             
     e( 32 - 32) =     15.48572  eV     1   --> A''            
     e( 33 - 33) =     15.50137  eV     1   --> A'             
     e( 34 - 34) =     17.03120  eV     1   --> A'             
     e( 35 - 35) =     17.87865  eV     1   --> A'             
     e( 36 - 36) =     17.97999  eV     1   --> A''            
     e( 37 - 37) =     18.25272  eV     1   --> A'             
     e( 38 - 38) =     18.46061  eV     1   --> A''            
     e( 39 - 39) =     18.61408  eV     1   --> A'             
     e( 40 - 40) =     19.63412  eV     1   --> A'             
     e( 41 - 41) =     20.75117  eV     1   --> A'             
     e( 42 - 42) =     20.77166  eV     1   --> A'             
     e( 43 - 43) =     21.00272  eV     1   --> A''            
     e( 44 - 44) =     21.41771  eV     1   --> A'             
     e( 45 - 45) =     21.48402  eV     1   --> A'             
     e( 46 - 46) =     21.62070  eV     1   --> A''            
     e( 47 - 47) =     21.74243  eV     1   --> A'             
     e( 48 - 48) =     22.42422  eV     1   --> A''            
     e( 49 - 49) =     22.44178  eV     1   --> A'             
     e( 50 - 50) =     22.98678  eV     1   --> A'             
     e( 51 - 51) =     23.22823  eV     1   --> A''            
     e( 52 - 52) =     23.24766  eV     1   --> A'             
     e( 53 - 53) =     24.53135  eV     1   --> A'             
     e( 54 - 54) =     24.84827  eV     1   --> A'             
     e( 55 - 55) =     24.93863  eV     1   --> A''            
     e( 56 - 56) =     25.35523  eV     1   --> A'             
     e( 57 - 57) =     25.70330  eV     1   --> A'             
     e( 58 - 58) =     25.76746  eV     1   --> A''            
     e( 59 - 59) =     25.90205  eV     1   --> A'             
     e( 60 - 60) =     27.45735  eV     1   --> A''            
     e( 61 - 61) =     27.52896  eV     1   --> A'             
     e( 62 - 62) =     28.51606  eV     1   --> A'             
     e( 63 - 63) =     28.94405  eV     1   --> A''            
     e( 64 - 64) =     29.04724  eV     1   --> A'             
     e( 65 - 65) =     29.31962  eV     1   --> A'             
     e( 66 - 66) =     29.43219  eV     1   --> A''            
     e( 67 - 67) =     30.15752  eV     1   --> A'             
     e( 68 - 68) =     30.43393  eV     1   --> A'             
     e( 69 - 69) =     31.45496  eV     1   --> A'             
     e( 70 - 70) =     31.56857  eV     1   --> A''            

 **************************************************************************

 **************************************************************************

                    xk=(   0.01925,   0.00000,   0.00000  )

     Band symmetry, C_s (m)     point group:

     e(  1 -  1) =    -14.16042  eV     1   --> A'             
     e(  2 -  2) =    -14.08876  eV     1   --> A'             
     e(  3 -  3) =    -13.80495  eV     1   --> A'             
     e(  4 -  4) =    -13.71484  eV     1   --> A'             
     e(  5 -  5) =     -1.11662  eV     1   --> A'             
     e(  6 -  6) =     -0.56661  eV     1   --> A'             
     e(  7 -  7) =      0.59257  eV     1   --> A'             
     e(  8 -  8) =      1.00063  eV     1   --> A'             
     e(  9 -  9) =      1.00506  eV     1   --> A''            
     e( 10 - 10) =      1.03936  eV     1   --> A'             
     e( 11 - 11) =      1.04743  eV     1   --> A''            
     e( 12 - 12) =      1.26507  eV     1   --> A'             
     e( 13 - 13) =      1.27392  eV     1   --> A''            
     e( 14 - 14) =      1.34399  eV     1   --> A'             
     e( 15 - 15) =      1.35222  eV     1   --> A''            
     e( 16 - 16) =      1.87271  eV     1   --> A'             
     e( 17 - 17) =      2.91315  eV     1   --> A'             
     e( 18 - 18) =      4.49533  eV     1   --> A'             
     e( 19 - 19) =      5.79635  eV     1   --> A'             
     e( 20 - 20) =      7.17807  eV     1   --> A'             
     e( 21 - 21) =      8.53260  eV     1   --> A'             
     e( 22 - 22) =      9.35121  eV     1   --> A'             
     e( 23 - 23) =     12.86329  eV     1   --> A'             
     e( 24 - 24) =     13.59207  eV     1   --> A'             
     e( 25 - 25) =     13.61434  eV     1   --> A''            
     e( 26 - 26) =     13.89060  eV     1   --> A'             
     e( 27 - 27) =     13.91262  eV     1   --> A''            
     e( 28 - 28) =     14.24218  eV     1   --> A'             
     e( 29 - 29) =     15.07743  eV     1   --> A''            
     e( 30 - 30) =     15.08003  eV     1   --> A'             
     e( 31 - 31) =     15.46538  eV     1   --> A''            
     e( 32 - 32) =     15.46549  eV     1   --> A'             
     e( 33 - 33) =     15.46867  eV     1   --> A'             
     e( 34 - 34) =     16.93425  eV     1   --> A'             
     e( 35 - 35) =     18.00278  eV     1   --> A'             
     e( 36 - 36) =     18.01589  eV     1   --> A''            
     e( 37 - 37) =     18.31769  eV     1   --> A'             
     e( 38 - 38) =     18.46391  eV     1   --> A''            
     e( 39 - 39) =     18.52307  eV     1   --> A'             
     e( 40 - 40) =     19.61778  eV     1   --> A'             
     e( 41 - 41) =     20.70581  eV     1   --> A'             
     e( 42 - 42) =     20.86783  eV     1   --> A'             
     e( 43 - 43) =     20.93738  eV     1   --> A''            
     e( 44 - 44) =     21.23502  eV     1   --> A'             
     e( 45 - 45) =     21.54090  eV     1   --> A'             
     e( 46 - 46) =     21.56365  eV     1   --> A''            
     e( 47 - 47) =     21.67487  eV     1   --> A'             
     e( 48 - 48) =     22.52897  eV     1   --> A''            
     e( 49 - 49) =     22.54730  eV     1   --> A'             
     e( 50 - 50) =     22.85370  eV     1   --> A'             
     e( 51 - 51) =     23.20414  eV     1   --> A''            
     e( 52 - 52) =     23.22376  eV     1   --> A'             
     e( 53 - 53) =     24.43461  eV     1   --> A'             
     e( 54 - 54) =     24.87321  eV     1   --> A'             
     e( 55 - 55) =     24.87699  eV     1   --> A''            
     e( 56 - 56) =     25.33875  eV     1   --> A'             
     e( 57 - 57) =     25.73105  eV     1   --> A''            
     e( 58 - 58) =     25.73455  eV     1   --> A'             
     e( 59 - 59) =     25.87036  eV     1   --> A'             
     e( 60 - 60) =     27.51239  eV     1   --> A''            
     e( 61 - 61) =     27.55096  eV     1   --> A'             
     e( 62 - 62) =     28.52264  eV     1   --> A'             
     e( 63 - 63) =     28.93213  eV     1   --> A''            
     e( 64 - 64) =     28.97431  eV     1   --> A'             
     e( 65 - 65) =     29.35835  eV     1   --> A'             
     e( 66 - 66) =     29.37118  eV     1   --> A''            
     e( 67 - 67) =     30.08012  eV     1   --> A'             
     e( 68 - 68) =     30.37409  eV     1   --> A'             
     e( 69 - 69) =     31.46353  eV     1   --> A'             
     e( 70 - 70) =     31.55825  eV     1   --> A''            

 **************************************************************************

 **************************************************************************

                    xk=(   0.00000,   0.00000,   0.00000  )

     Band symmetry, C_s (m)     point group:

     e(  1 -  1) =    -14.16187  eV     1   --> A'             
     e(  2 -  2) =    -14.09013  eV     1   --> A'             
     e(  3 -  3) =    -13.80626  eV     1   --> A'             
     e(  4 -  4) =    -13.71609  eV     1   --> A'             
     e(  5 -  5) =     -1.11937  eV     1   --> A'             
     e(  6 -  6) =     -0.56656  eV     1   --> A'             
     e(  7 -  7) =      0.59083  eV     1   --> A'             
     e(  8 -  8) =      1.00685  eV     1   --> A''            
     e(  9 -  9) =      1.01045  eV     1   --> A'             
     e( 10 - 10) =      1.04913  eV     1   --> A''            
     e( 11 - 11) =      1.05257  eV     1   --> A'             
     e( 12 - 12) =      1.27547  eV     1   --> A''            
     e( 13 - 13) =      1.27903  eV     1   --> A'             
     e( 14 - 14) =      1.35375  eV     1   --> A''            
     e( 15 - 15) =      1.35724  eV     1   --> A'             
     e( 16 - 16) =      1.86800  eV     1   --> A'             
     e( 17 - 17) =      2.89660  eV     1   --> A'             
     e( 18 - 18) =      4.49258  eV     1   --> A'             
     e( 19 - 19) =      5.78087  eV     1   --> A'             
     e( 20 - 20) =      7.16591  eV     1   --> A'             
     e( 21 - 21) =      8.52796  eV     1   --> A'             
     e( 22 - 22) =      9.34277  eV     1   --> A'             
     e( 23 - 23) =     12.86746  eV     1   --> A'             
     e( 24 - 24) =     13.61302  eV     1   --> A''            
     e( 25 - 25) =     13.63339  eV     1   --> A'             
     e( 26 - 26) =     13.91121  eV     1   --> A''            
     e( 27 - 27) =     13.93145  eV     1   --> A'             
     e( 28 - 28) =     14.25325  eV     1   --> A'             
     e( 29 - 29) =     15.07037  eV     1   --> A''            
     e( 30 - 30) =     15.09169  eV     1   --> A'             
     e( 31 - 31) =     15.45485  eV     1   --> A'             
     e( 32 - 32) =     15.45859  eV     1   --> A''            
     e( 33 - 33) =     15.47979  eV     1   --> A'             
     e( 34 - 34) =     16.89881  eV     1   --> A'             
     e( 35 - 35) =     18.02872  eV     1   --> A''            
     e( 36 - 36) =     18.04927  eV     1   --> A'             
     e( 37 - 37) =     18.34446  eV     1   --> A'             
     e( 38 - 38) =     18.46487  eV     1   --> A''            
     e( 39 - 39) =     18.48628  eV     1   --> A'             
     e( 40 - 40) =     19.61216  eV     1   --> A'             
     e( 41 - 41) =     20.68314  eV     1   --> A'             
     e( 42 - 42) =     20.91522  eV     1   --> A''            
     e( 43 - 43) =     20.93990  eV     1   --> A'             
     e( 44 - 44) =     21.13452  eV     1   --> A'             
     e( 45 - 45) =     21.54432  eV     1   --> A''            
     e( 46 - 46) =     21.56845  eV     1   --> A'             
     e( 47 - 47) =     21.65134  eV     1   --> A'             
     e( 48 - 48) =     22.56898  eV     1   --> A''            
     e( 49 - 49) =     22.58777  eV     1   --> A'             
     e( 50 - 50) =     22.80531  eV     1   --> A'             
     e( 51 - 51) =     23.19145  eV     1   --> A''            
     e( 52 - 52) =     23.21195  eV     1   --> A'             
     e( 53 - 53) =     24.40052  eV     1   --> A'             
     e( 54 - 54) =     24.85625  eV     1   --> A''            
     e( 55 - 55) =     24.88237  eV     1   --> A'             
     e( 56 - 56) =     25.33151  eV     1   --> A'             
     e( 57 - 57) =     25.71864  eV     1   --> A''            
     e( 58 - 58) =     25.74538  eV     1   --> A'             
     e( 59 - 59) =     25.86215  eV     1   --> A'             
     e( 60 - 60) =     27.53178  eV     1   --> A''            
     e( 61 - 61) =     27.55856  eV     1   --> A'             
     e( 62 - 62) =     28.51993  eV     1   --> A'             
     e( 63 - 63) =     28.92819  eV     1   --> A''            
     e( 64 - 64) =     28.95417  eV     1   --> A'             
     e( 65 - 65) =     29.34979  eV     1   --> A''            
     e( 66 - 66) =     29.37445  eV     1   --> A'             
     e( 67 - 67) =     30.05085  eV     1   --> A'             
     e( 68 - 68) =     30.35265  eV     1   --> A'             
     e( 69 - 69) =     31.46552  eV     1   --> A'             
     e( 70 - 70) =     31.55480  eV     1   --> A''            

 **************************************************************************
 
     BANDS        :      5.61s CPU      9.11s WALL

 
   This run was terminated on:  15:43:35  17Jun2023            

=------------------------------------------------------------------------------=
   JOB DONE.
=------------------------------------------------------------------------------=
