
     Program PWSCF v.7.1 starts on 17Jun2023 at 15:35: 2 

     This program is part of the open-source Quantum ESPRESSO suite
     for quantum simulation of materials; please cite
         "P. Giannozzi et al., J. Phys.:Condens. Matter 21 395502 (2009);
         "P. Giannozzi et al., J. Phys.:Condens. Matter 29 465901 (2017);
         "P. Giannozzi et al., J. Chem. Phys. 152 154105 (2020);
          URL http://www.quantum-espresso.org", 
     in publications or presentations arising from this work. More details at
     http://www.quantum-espresso.org/quote

     Parallel version (MPI), running on    16 processors

     MPI processes distributed on     1 nodes
     52114 MiB available memory on the printing compute node when the environment starts
 
     Waiting for input...
     Reading input from standard input

     Current dimensions of program PWSCF are:
     Max number of different atomic species (ntypx) = 10
     Max number of k-points (npk) =  40000
     Max angular momentum in pseudopotentials (lmaxx) =  4
     Message from routine volume:
     axis vectors are left-handed
     file Al.pbe-n-kjpaw_psl.1.0.0.UPF: wavefunction(s)  3S 3P renormalized
     file O.pbe-n-kjpaw_psl.1.0.0.UPF: wavefunction(s)  2S 2P renormalized
     Message from routine setup:
     using ibrav=0 with symmetry is DISCOURAGED, use correct ibrav instead
 
     R & G space division:  proc/nbgrp/npool/nimage =      16
     Subspace diagonalization in iterative solution of the eigenvalue problem:
     a serial algorithm will be used

 
     Parallelization info
     --------------------
     sticks:   dense  smooth     PW     G-vecs:    dense   smooth      PW
     Min          39      39     12                 3047     3047     538
     Max          40      40     13                 3053     3053     551
     Sum         625     625    199                48809    48809    8689
 
     Using Slab Decomposition
 


     bravais-lattice index     =            0
     lattice parameter (alat)  =       6.1344  a.u.
     unit-cell volume          =     778.8009 (a.u.)^3
     number of atoms/cell      =            8
     number of atomic types    =            2
     number of electrons       =        36.00
     number of Kohn-Sham states=           70
     kinetic-energy cutoff     =      60.0000  Ry
     charge density cutoff     =     240.0000  Ry
     scf convergence threshold =      1.0E-08
     mixing beta               =       0.5000
     number of iterations used =            8  plain     mixing
     Exchange-correlation= SLA  PW   PBX  PBC
                           (   1   4   3   4   0   0   0)

     celldm(1)=   6.134387  celldm(2)=   0.000000  celldm(3)=   0.000000
     celldm(4)=   0.000000  celldm(5)=   0.000000  celldm(6)=   0.000000

     crystal axes: (cart. coord. in units of alat)
               a(1) = (   0.865734   0.500504   0.000000 )  
               a(2) = (   0.865734  -0.500504   0.000000 )  
               a(3) = (   0.000000   0.000000   3.893058 )  

     reciprocal axes: (cart. coord. in units 2 pi/alat)
               b(1) = (  0.577544  0.998993  0.000000 )  
               b(2) = (  0.577544 -0.998993  0.000000 )  
               b(3) = (  0.000000  0.000000  0.256867 )  


     PseudoPot. # 1 for Al read from file:
     /home/mainadmin/research/danu/pseudo/Al.pbe-n-kjpaw_psl.1.0.0.UPF
     MD5 check sum: 502b6b27b9c6270cab5dd1084b96fa6d
     Pseudo is Projector augmented-wave + core cor, Zval =  3.0
     Generated using &quot;atomic&quot; code by A. Dal Corso  v.6.3
     Shape of augmentation charge: PSQ
     Using radial grid of 1135 points,  6 beta functions with: 
                l(1) =   0
                l(2) =   0
                l(3) =   1
                l(4) =   1
                l(5) =   2
                l(6) =   2
     Q(r) pseudized with 0 coefficients 


     PseudoPot. # 2 for O  read from file:
     /home/mainadmin/research/danu/pseudo/O.pbe-n-kjpaw_psl.1.0.0.UPF
     MD5 check sum: e99d9cef9b487d1ca56f5b95ecd0fd7a
     Pseudo is Projector augmented-wave + core cor, Zval =  6.0
     Generated using &quot;atomic&quot; code by A. Dal Corso  v.6.3
     Shape of augmentation charge: PSQ
     Using radial grid of 1095 points,  4 beta functions with: 
                l(1) =   0
                l(2) =   0
                l(3) =   1
                l(4) =   1
     Q(r) pseudized with 0 coefficients 


     atomic species   valence    mass     pseudopotential
        Al             3.00    26.98100     Al( 1.00)
        O              6.00    15.99900     O ( 1.00)

      2 Sym. Ops. (no inversion) found



   Cartesian axes

     site n.     atom                  positions (alat units)
         1           O   tau(   1) = (   0.5771561   0.0000000   0.0000000  )
         2           Al  tau(   2) = (   0.0000000   0.0000000   0.1684475  )
         3           Al  tau(   3) = (   0.0000000   0.0000000   0.9731786  )
         4           O   tau(   4) = (   0.5771561   0.0000000   1.1436902  )
         5           O   tau(   5) = (   1.1543123   0.0000000   1.9480749  )
         6           Al  tau(   6) = (   0.5771561   0.0000000   2.1133307  )
         7           Al  tau(   7) = (   0.5771561   0.0000000   2.9187314  )
         8           O   tau(   8) = (   1.1543123   0.0000000   3.0886731  )

     number of k points=   140

     Number of k-points >= 100: set verbosity='high' to print them.

     Dense  grid:    48809 G-vectors     FFT dimensions: (  32,  32, 120)

     Estimated max dynamical RAM per process >      71.39 MB

     Estimated total dynamical RAM >       1.12 GB

     Check: negative core charge=   -0.000007

     Initial potential from superposition of free atoms

     starting charge      35.9908, renormalised to      36.0000
     Starting wfcs are   32 randomized atomic wfcs +   38 random wfcs
     Checking if some PAW data can be deallocated... 

     total cpu time spent up to now is        6.5 secs

     Self-consistent Calculation

     iteration #  1     ecut=    60.00 Ry     beta= 0.50
     Davidson diagonalization with overlap
     ethr =  1.00E-02,  avg # of iterations =  8.2

     total cpu time spent up to now is       57.3 secs

     total energy              =    -324.68942315 Ry
     estimated scf accuracy    <       1.80809885 Ry

     iteration #  2     ecut=    60.00 Ry     beta= 0.50
     Davidson diagonalization with overlap
     ethr =  5.02E-03,  avg # of iterations =  1.0

     total cpu time spent up to now is       74.7 secs

     total energy              =    -325.11345219 Ry
     estimated scf accuracy    <       0.80051363 Ry

     iteration #  3     ecut=    60.00 Ry     beta= 0.50
     Davidson diagonalization with overlap
     ethr =  2.22E-03,  avg # of iterations =  1.1

     total cpu time spent up to now is       92.2 secs

     total energy              =    -325.29113316 Ry
     estimated scf accuracy    <       0.02970496 Ry

     iteration #  4     ecut=    60.00 Ry     beta= 0.50
     Davidson diagonalization with overlap
     ethr =  8.25E-05,  avg # of iterations =  7.9

     total cpu time spent up to now is      118.4 secs

     total energy              =    -325.30481220 Ry
     estimated scf accuracy    <       0.00533821 Ry

     iteration #  5     ecut=    60.00 Ry     beta= 0.50
     Davidson diagonalization with overlap
     ethr =  1.48E-05,  avg # of iterations =  4.7

     total cpu time spent up to now is      143.0 secs

     total energy              =    -325.30555985 Ry
     estimated scf accuracy    <       0.00421732 Ry

     iteration #  6     ecut=    60.00 Ry     beta= 0.50
     Davidson diagonalization with overlap
     ethr =  1.17E-05,  avg # of iterations =  2.0

     total cpu time spent up to now is      162.0 secs

     total energy              =    -325.30626047 Ry
     estimated scf accuracy    <       0.00011719 Ry

     iteration #  7     ecut=    60.00 Ry     beta= 0.50
     Davidson diagonalization with overlap
     ethr =  3.26E-07,  avg # of iterations =  4.8

     total cpu time spent up to now is      185.0 secs

     total energy              =    -325.30631354 Ry
     estimated scf accuracy    <       0.00002069 Ry

     iteration #  8     ecut=    60.00 Ry     beta= 0.50
     Davidson diagonalization with overlap
     ethr =  5.75E-08,  avg # of iterations =  3.3

     total cpu time spent up to now is      205.9 secs

     total energy              =    -325.30632182 Ry
     estimated scf accuracy    <       0.00000501 Ry

     iteration #  9     ecut=    60.00 Ry     beta= 0.50
     Davidson diagonalization with overlap
     ethr =  1.39E-08,  avg # of iterations =  2.9

     total cpu time spent up to now is      226.4 secs

     total energy              =    -325.30632361 Ry
     estimated scf accuracy    <       0.00000064 Ry

     iteration # 10     ecut=    60.00 Ry     beta= 0.50
     Davidson diagonalization with overlap
     ethr =  1.79E-09,  avg # of iterations =  3.5

     total cpu time spent up to now is      248.1 secs

     total energy              =    -325.30632389 Ry
     estimated scf accuracy    <       0.00000006 Ry

     iteration # 11     ecut=    60.00 Ry     beta= 0.50
     Davidson diagonalization with overlap
     ethr =  1.80E-10,  avg # of iterations =  3.3

     total cpu time spent up to now is      269.3 secs

     total energy              =    -325.30632391 Ry
     estimated scf accuracy    <       0.00000001 Ry

     iteration # 12     ecut=    60.00 Ry     beta= 0.50
     Davidson diagonalization with overlap
     ethr =  3.68E-11,  avg # of iterations =  2.4

     total cpu time spent up to now is      289.3 secs

     End of self-consistent calculation

     Number of k-points >= 100: set verbosity='high' to print the bands.

     highest occupied, lowest unoccupied level (ev):     5.4692    5.7808

!    total energy              =    -325.30632392 Ry
     total all-electron energy =     -2545.265006 Ry
     estimated scf accuracy    <          7.0E-10 Ry

     The total energy is the sum of the following terms:
     one-electron contribution =     -58.96094597 Ry
     hartree contribution      =      50.31170511 Ry
     xc contribution           =     -40.13812554 Ry
     ewald contribution        =     -99.54941253 Ry
     one-center paw contrib.   =    -176.96954499 Ry

     convergence has been achieved in  12 iterations

     Writing all to output data dir ./work/Al2O2.save/
 
     init_run     :      4.39s CPU      6.38s WALL (       1 calls)
     electrons    :    213.57s CPU    282.80s WALL (       1 calls)

     Called by init_run:
     wfcinit      :      4.21s CPU      6.16s WALL (       1 calls)
     potinit      :      0.08s CPU      0.10s WALL (       1 calls)
     hinit0       :      0.07s CPU      0.07s WALL (       1 calls)

     Called by electrons:
     c_bands      :    192.36s CPU    250.83s WALL (      12 calls)
     sum_band     :     20.01s CPU     30.69s WALL (      12 calls)
     v_of_rho     :      0.04s CPU      0.06s WALL (      13 calls)
     newd         :      0.23s CPU      0.24s WALL (      13 calls)
     PAW_pot      :      0.99s CPU      1.05s WALL (      13 calls)
     mix_rho      :      0.02s CPU      0.02s WALL (      12 calls)

     Called by c_bands:
     init_us_2    :      1.07s CPU      1.17s WALL (    3500 calls)
     init_us_2:cp :      1.06s CPU      1.16s WALL (    3500 calls)
     cegterg      :    186.19s CPU    244.60s WALL (    1680 calls)

     Called by *egterg:
     cdiaghg      :     32.27s CPU     33.32s WALL (    7971 calls)
     h_psi        :    107.46s CPU    163.76s WALL (    8111 calls)
     s_psi        :      7.31s CPU      7.87s WALL (    8111 calls)
     g_psi        :      0.21s CPU      0.21s WALL (    6291 calls)

     Called by h_psi:
     h_psi:calbec :      8.26s CPU     11.30s WALL (    8111 calls)
     vloc_psi     :     90.02s CPU    141.96s WALL (    8111 calls)
     add_vuspsi   :      8.29s CPU      9.58s WALL (    8111 calls)

     General routines
     calbec       :     10.01s CPU     13.78s WALL (    9791 calls)
     fft          :      0.03s CPU      0.05s WALL (     143 calls)
     ffts         :      0.00s CPU      0.00s WALL (      12 calls)
     fftw         :    103.07s CPU    162.63s WALL (  724600 calls)
 
     Parallel routines
 
     PWSCF        :   3m38.79s CPU   4m51.64s WALL

 
   This run was terminated on:  15:39:54  17Jun2023            

=------------------------------------------------------------------------------=
   JOB DONE.
=------------------------------------------------------------------------------=
