
     Program PWSCF v.7.1 starts on 17Jun2023 at 15:39:57 

     This program is part of the open-source Quantum ESPRESSO suite
     for quantum simulation of materials; please cite
         "P. Giannozzi et al., J. Phys.:Condens. Matter 21 395502 (2009);
         "P. Giannozzi et al., J. Phys.:Condens. Matter 29 465901 (2017);
         "P. Giannozzi et al., J. Chem. Phys. 152 154105 (2020);
          URL http://www.quantum-espresso.org", 
     in publications or presentations arising from this work. More details at
     http://www.quantum-espresso.org/quote

     Parallel version (MPI), running on    16 processors

     MPI processes distributed on     1 nodes
     51158 MiB available memory on the printing compute node when the environment starts
 
     Waiting for input...
     Reading input from standard input

     Current dimensions of program PWSCF are:
     Max number of different atomic species (ntypx) = 10
     Max number of k-points (npk) =  40000
     Max angular momentum in pseudopotentials (lmaxx) =  4
     Message from routine volume:
     axis vectors are left-handed

     Atomic positions and unit cell read from directory:
     ./work/Al2O2.save/
     Atomic positions from file used, from input discarded
 
     Message from routine volume:
     axis vectors are left-handed
     file Al.pbe-n-kjpaw_psl.1.0.0.UPF: wavefunction(s)  3S 3P renormalized
     file O.pbe-n-kjpaw_psl.1.0.0.UPF: wavefunction(s)  2S 2P renormalized
     Message from routine setup:
     using ibrav=0 with symmetry is DISCOURAGED, use correct ibrav instead
 
     R & G space division:  proc/nbgrp/npool/nimage =      16
     Subspace diagonalization in iterative solution of the eigenvalue problem:
     a serial algorithm will be used

 
     Parallelization info
     --------------------
     sticks:   dense  smooth     PW     G-vecs:    dense   smooth      PW
     Min          39      39     11                 3047     3047     483
     Max          40      40     12                 3053     3053     496
     Sum         625     625    187                48809    48809    7879
 
     Using Slab Decomposition
 


     bravais-lattice index     =            0
     lattice parameter (alat)  =       6.1344  a.u.
     unit-cell volume          =     778.8009 (a.u.)^3
     number of atoms/cell      =            8
     number of atomic types    =            2
     number of electrons       =        36.00
     number of Kohn-Sham states=           70
     kinetic-energy cutoff     =      60.0000  Ry
     charge density cutoff     =     240.0000  Ry
     Exchange-correlation= SLA  PW   PBX  PBC
                           (   1   4   3   4   0   0   0)

     celldm(1)=   6.134387  celldm(2)=   0.000000  celldm(3)=   0.000000
     celldm(4)=   0.000000  celldm(5)=   0.000000  celldm(6)=   0.000000

     crystal axes: (cart. coord. in units of alat)
               a(1) = (   0.865734   0.500504   0.000000 )  
               a(2) = (   0.865734  -0.500504   0.000000 )  
               a(3) = (   0.000000   0.000000   3.893058 )  

     reciprocal axes: (cart. coord. in units 2 pi/alat)
               b(1) = (  0.577544  0.998993  0.000000 )  
               b(2) = (  0.577544 -0.998993  0.000000 )  
               b(3) = (  0.000000  0.000000  0.256867 )  


     PseudoPot. # 1 for Al read from file:
     /home/mainadmin/research/danu/pseudo/Al.pbe-n-kjpaw_psl.1.0.0.UPF
     MD5 check sum: 502b6b27b9c6270cab5dd1084b96fa6d
     Pseudo is Projector augmented-wave + core cor, Zval =  3.0
     Generated using &quot;atomic&quot; code by A. Dal Corso  v.6.3
     Shape of augmentation charge: PSQ
     Using radial grid of 1135 points,  6 beta functions with: 
                l(1) =   0
                l(2) =   0
                l(3) =   1
                l(4) =   1
                l(5) =   2
                l(6) =   2
     Q(r) pseudized with 0 coefficients 


     PseudoPot. # 2 for O  read from file:
     /home/mainadmin/research/danu/pseudo/O.pbe-n-kjpaw_psl.1.0.0.UPF
     MD5 check sum: e99d9cef9b487d1ca56f5b95ecd0fd7a
     Pseudo is Projector augmented-wave + core cor, Zval =  6.0
     Generated using &quot;atomic&quot; code by A. Dal Corso  v.6.3
     Shape of augmentation charge: PSQ
     Using radial grid of 1095 points,  4 beta functions with: 
                l(1) =   0
                l(2) =   0
                l(3) =   1
                l(4) =   1
     Q(r) pseudized with 0 coefficients 


     atomic species   valence    mass     pseudopotential
        Al             3.00    26.98100     Al( 1.00)
        O              6.00    15.99900     O ( 1.00)

      2 Sym. Ops. (no inversion) found



   Cartesian axes

     site n.     atom                  positions (alat units)
         1           O   tau(   1) = (   0.5771561   0.0000000   0.0000000  )
         2           Al  tau(   2) = (   0.0000000   0.0000000   0.1684475  )
         3           Al  tau(   3) = (   0.0000000   0.0000000   0.9731786  )
         4           O   tau(   4) = (   0.5771561   0.0000000   1.1436902  )
         5           O   tau(   5) = (   1.1543123   0.0000000   1.9480749  )
         6           Al  tau(   6) = (   0.5771561   0.0000000   2.1133307  )
         7           Al  tau(   7) = (   0.5771561   0.0000000   2.9187314  )
         8           O   tau(   8) = (   1.1543123   0.0000000   3.0886731  )

     number of k points=    91
                       cart. coord. in units 2pi/alat
        k(    1) = (   0.0000000   0.0000000   0.0000000), wk =   0.0219780
        k(    2) = (   0.0192515   0.0110848   0.0000000), wk =   0.0219780
        k(    3) = (   0.0385030   0.0221697   0.0000000), wk =   0.0219780
        k(    4) = (   0.0577544   0.0332545   0.0000000), wk =   0.0219780
        k(    5) = (   0.0770059   0.0443393   0.0000000), wk =   0.0219780
        k(    6) = (   0.0962574   0.0554241   0.0000000), wk =   0.0219780
        k(    7) = (   0.1155089   0.0665090   0.0000000), wk =   0.0219780
        k(    8) = (   0.1347604   0.0775938   0.0000000), wk =   0.0219780
        k(    9) = (   0.1540119   0.0886786   0.0000000), wk =   0.0219780
        k(   10) = (   0.1732633   0.0997634   0.0000000), wk =   0.0219780
        k(   11) = (   0.1925148   0.1108483   0.0000000), wk =   0.0219780
        k(   12) = (   0.2117663   0.1219331   0.0000000), wk =   0.0219780
        k(   13) = (   0.2310178   0.1330179   0.0000000), wk =   0.0219780
        k(   14) = (   0.2502693   0.1441027   0.0000000), wk =   0.0219780
        k(   15) = (   0.2695208   0.1551876   0.0000000), wk =   0.0219780
        k(   16) = (   0.2887722   0.1662724   0.0000000), wk =   0.0219780
        k(   17) = (   0.3080237   0.1773572   0.0000000), wk =   0.0219780
        k(   18) = (   0.3272752   0.1884420   0.0000000), wk =   0.0219780
        k(   19) = (   0.3465267   0.1995269   0.0000000), wk =   0.0219780
        k(   20) = (   0.3657782   0.2106117   0.0000000), wk =   0.0219780
        k(   21) = (   0.3850296   0.2216965   0.0000000), wk =   0.0219780
        k(   22) = (   0.4042811   0.2327813   0.0000000), wk =   0.0219780
        k(   23) = (   0.4235326   0.2438662   0.0000000), wk =   0.0219780
        k(   24) = (   0.4427841   0.2549510   0.0000000), wk =   0.0219780
        k(   25) = (   0.4620356   0.2660358   0.0000000), wk =   0.0219780
        k(   26) = (   0.4812871   0.2771206   0.0000000), wk =   0.0219780
        k(   27) = (   0.5005385   0.2882055   0.0000000), wk =   0.0219780
        k(   28) = (   0.5197900   0.2992903   0.0000000), wk =   0.0219780
        k(   29) = (   0.5390415   0.3103751   0.0000000), wk =   0.0219780
        k(   30) = (   0.5582930   0.3214599   0.0000000), wk =   0.0219780
        k(   31) = (   0.5775445   0.3325448   0.0000000), wk =   0.0219780
        k(   32) = (   0.5775445   0.3214599   0.0000000), wk =   0.0219780
        k(   33) = (   0.5775445   0.3103751   0.0000000), wk =   0.0219780
        k(   34) = (   0.5775445   0.2992903   0.0000000), wk =   0.0219780
        k(   35) = (   0.5775445   0.2882055   0.0000000), wk =   0.0219780
        k(   36) = (   0.5775445   0.2771206   0.0000000), wk =   0.0219780
        k(   37) = (   0.5775445   0.2660358   0.0000000), wk =   0.0219780
        k(   38) = (   0.5775445   0.2549510   0.0000000), wk =   0.0219780
        k(   39) = (   0.5775445   0.2438662   0.0000000), wk =   0.0219780
        k(   40) = (   0.5775445   0.2327813   0.0000000), wk =   0.0219780
        k(   41) = (   0.5775445   0.2216965   0.0000000), wk =   0.0219780
        k(   42) = (   0.5775445   0.2106117   0.0000000), wk =   0.0219780
        k(   43) = (   0.5775445   0.1995269   0.0000000), wk =   0.0219780
        k(   44) = (   0.5775445   0.1884420   0.0000000), wk =   0.0219780
        k(   45) = (   0.5775445   0.1773572   0.0000000), wk =   0.0219780
        k(   46) = (   0.5775445   0.1662724   0.0000000), wk =   0.0219780
        k(   47) = (   0.5775445   0.1551876   0.0000000), wk =   0.0219780
        k(   48) = (   0.5775445   0.1441027   0.0000000), wk =   0.0219780
        k(   49) = (   0.5775445   0.1330179   0.0000000), wk =   0.0219780
        k(   50) = (   0.5775445   0.1219331   0.0000000), wk =   0.0219780
        k(   51) = (   0.5775445   0.1108483   0.0000000), wk =   0.0219780
        k(   52) = (   0.5775445   0.0997634   0.0000000), wk =   0.0219780
        k(   53) = (   0.5775445   0.0886786   0.0000000), wk =   0.0219780
        k(   54) = (   0.5775445   0.0775938   0.0000000), wk =   0.0219780
        k(   55) = (   0.5775445   0.0665090   0.0000000), wk =   0.0219780
        k(   56) = (   0.5775445   0.0554241   0.0000000), wk =   0.0219780
        k(   57) = (   0.5775445   0.0443393   0.0000000), wk =   0.0219780
        k(   58) = (   0.5775445   0.0332545   0.0000000), wk =   0.0219780
        k(   59) = (   0.5775445   0.0221697   0.0000000), wk =   0.0219780
        k(   60) = (   0.5775445   0.0110848   0.0000000), wk =   0.0219780
        k(   61) = (   0.5775445   0.0000000   0.0000000), wk =   0.0219780
        k(   62) = (   0.5582930   0.0000000   0.0000000), wk =   0.0219780
        k(   63) = (   0.5390415   0.0000000   0.0000000), wk =   0.0219780
        k(   64) = (   0.5197900   0.0000000   0.0000000), wk =   0.0219780
        k(   65) = (   0.5005385   0.0000000   0.0000000), wk =   0.0219780
        k(   66) = (   0.4812871   0.0000000   0.0000000), wk =   0.0219780
        k(   67) = (   0.4620356   0.0000000   0.0000000), wk =   0.0219780
        k(   68) = (   0.4427841   0.0000000   0.0000000), wk =   0.0219780
        k(   69) = (   0.4235326   0.0000000   0.0000000), wk =   0.0219780
        k(   70) = (   0.4042811   0.0000000   0.0000000), wk =   0.0219780
        k(   71) = (   0.3850296   0.0000000   0.0000000), wk =   0.0219780
        k(   72) = (   0.3657782   0.0000000   0.0000000), wk =   0.0219780
        k(   73) = (   0.3465267   0.0000000   0.0000000), wk =   0.0219780
        k(   74) = (   0.3272752   0.0000000   0.0000000), wk =   0.0219780
        k(   75) = (   0.3080237   0.0000000   0.0000000), wk =   0.0219780
        k(   76) = (   0.2887722   0.0000000   0.0000000), wk =   0.0219780
        k(   77) = (   0.2695208   0.0000000   0.0000000), wk =   0.0219780
        k(   78) = (   0.2502693   0.0000000   0.0000000), wk =   0.0219780
        k(   79) = (   0.2310178   0.0000000   0.0000000), wk =   0.0219780
        k(   80) = (   0.2117663   0.0000000   0.0000000), wk =   0.0219780
        k(   81) = (   0.1925148   0.0000000   0.0000000), wk =   0.0219780
        k(   82) = (   0.1732633   0.0000000   0.0000000), wk =   0.0219780
        k(   83) = (   0.1540119   0.0000000   0.0000000), wk =   0.0219780
        k(   84) = (   0.1347604   0.0000000   0.0000000), wk =   0.0219780
        k(   85) = (   0.1155089   0.0000000   0.0000000), wk =   0.0219780
        k(   86) = (   0.0962574   0.0000000   0.0000000), wk =   0.0219780
        k(   87) = (   0.0770059   0.0000000   0.0000000), wk =   0.0219780
        k(   88) = (   0.0577544   0.0000000   0.0000000), wk =   0.0219780
        k(   89) = (   0.0385030   0.0000000   0.0000000), wk =   0.0219780
        k(   90) = (   0.0192515   0.0000000   0.0000000), wk =   0.0219780
        k(   91) = (   0.0000000   0.0000000   0.0000000), wk =   0.0219780

     Dense  grid:    48809 G-vectors     FFT dimensions: (  32,  32, 120)

     Estimated max dynamical RAM per process >      13.42 MB

     Estimated total dynamical RAM >     214.69 MB

     Check: negative core charge=   -0.000007

     The potential is recalculated from file :
     ./work/Al2O2.save/charge-density

     Starting wfcs are   32 randomized atomic wfcs +   38 random wfcs
     Checking if some PAW data can be deallocated... 

     Band Structure Calculation
     Davidson diagonalization with overlap
     c_bands:  1 eigenvalues not converged
     c_bands:  1 eigenvalues not converged
     c_bands:  1 eigenvalues not converged
     c_bands:  1 eigenvalues not converged
     c_bands:  1 eigenvalues not converged
     c_bands:  1 eigenvalues not converged
     c_bands:  1 eigenvalues not converged
     c_bands:  1 eigenvalues not converged

     ethr =  2.78E-11,  avg # of iterations = 74.6

     total cpu time spent up to now is      204.5 secs

     End of band structure calculation

          k = 0.0000 0.0000 0.0000 (  6077 PWs)   bands (ev):

   -14.1619 -14.0901 -13.8063 -13.7161  -1.1194  -0.5666   0.5908   1.0069
     1.0104   1.0491   1.0526   1.2755   1.2790   1.3538   1.3572   1.8680
     2.8966   4.4926   5.7809   7.1659   8.5280   9.3428  12.8675  13.6130
    13.6334  13.9112  13.9315  14.2533  15.0704  15.0917  15.4549  15.4586
    15.4798  16.8988  18.0287  18.0493  18.3445  18.4649  18.4863  19.6122
    20.6831  20.9152  20.9399  21.1345  21.5443  21.5684  21.6513  22.5690
    22.5878  22.8053  23.1914  23.2119  24.4005  24.8562  24.8824  25.3315
    25.7186  25.7454  25.8621  27.5318  27.5586  28.5199  28.9282  28.9542
    29.3498  29.3745  30.0508  30.3526  31.4655  31.5548

          k = 0.0193 0.0111 0.0000 (  6123 PWs)   bands (ev):

   -14.1599 -14.0883 -13.8045 -13.7144  -1.1157  -0.5666   0.5931   0.9962
     1.0057   1.0340   1.0479   1.2595   1.2745   1.3386   1.3527   1.8742
     2.9185   4.4962   5.8015   7.1821   8.5341   9.3540  12.8619  13.5720
    13.6215  13.8708  13.9197  14.2384  15.0665  15.0896  15.4522  15.4723
    15.4770  16.9456  17.9809  18.0188  18.3080  18.4675  18.5320  19.6196
    20.7132  20.8472  20.9497  21.2601  21.5246  21.5780  21.6825  22.5163
    22.5346  22.8690  23.2077  23.2272  24.4455  24.8599  24.8944  25.3408
    25.7187  25.7475  25.8732  27.5087  27.5460  28.5224  28.9367  28.9786
    29.3446  29.3873  30.0891  30.3810  31.4613  31.5622

          k = 0.0385 0.0222 0.0000 (  6139 PWs)   bands (ev):

   -14.1541 -14.0828 -13.7993 -13.7095  -1.1049  -0.5670   0.5997   0.9562
     0.9836   0.9984   1.0410   1.2096   1.2682   1.2893   1.3466   1.8912
     2.9805   4.5071   5.8622   7.2301   8.5525   9.3875  12.8451  13.4210
    13.6243  13.7225  13.9235  14.1934  15.0256  15.1142  15.4036  15.5008
    15.5133  17.0695  17.8285  17.9632  18.2321  18.4535  18.6533  19.6411
    20.7267  20.7986  21.0136  21.4388  21.5054  21.6542  21.7704  22.3824
    22.4020  23.0410  23.2347  23.2542  24.5708  24.8330  24.9714  25.3599
    25.6831  25.7904  25.9185  27.4353  27.5194  28.5070  28.9527  29.0809
    29.2998  29.4646  30.1872  30.4582  31.4471  31.5796

          k = 0.0578 0.0333 0.0000 (  6149 PWs)   bands (ev):

   -14.1445 -14.0736 -13.7906 -13.7012  -1.0872  -0.5684   0.6093   0.8861
     0.9048   0.9864   1.0290   1.1412   1.2150   1.2578   1.3364   1.9153
     3.0731   4.5243   5.9600   7.3081   8.5825   9.4424  12.8170  13.1974
    13.4988  13.6335  13.9298  14.1174  14.9564  15.1601  15.3276  15.5449
    15.5548  17.2093  17.6476  17.8723  18.1553  18.4137  18.8279  19.6745
    20.6252  20.9213  21.0878  21.3448  21.7216  21.8696  21.8902  22.2155
    22.2379  23.2444  23.2681  23.2905  24.7426  24.7980  25.0957  25.3820
    25.6253  25.8623  26.0216  27.3158  27.4915  28.4492  28.9736  29.2400
    29.2912  29.5790  30.3169  30.5588  31.4358  31.6076

          k = 0.0770 0.0443 0.0000 (  6145 PWs)   bands (ev):

   -14.1312 -14.0610 -13.7787 -13.6898  -1.0637  -0.5718   0.6189   0.7860
     0.8034   0.9690   1.0090   1.0693   1.1272   1.2429   1.3220   1.9432
     3.1862   4.5464   6.0904   7.4137   8.6231   9.5174  12.7771  12.9276
    13.2330  13.6379  13.9349  14.0109  14.8641  15.2172  15.2465  15.5792
    15.6068  17.1726  17.6043  17.7652  18.1061  18.3459  19.0435  19.7173
    20.5581  21.0382  21.1604  21.2712  21.8529  21.9029  22.0909  22.1602
    22.2513  23.2280  23.2793  23.5916  24.7684  24.8861  25.2486  25.4536
    25.5609  25.9526  26.1895  27.1618  27.4724  28.3556  29.0006  29.2093
    29.5618  29.7112  30.4585  30.6388  31.4576  31.6557

          k = 0.0963 0.0554 0.0000 (  6135 PWs)   bands (ev):

   -14.1143 -14.0449 -13.7635 -13.6754  -1.0357  -0.5784   0.6147   0.6622
     0.6910   0.9448   0.9628   1.0130   1.0456   1.2233   1.3030   1.9724
     3.3114   4.5720   6.2487   7.5437   8.6732   9.6108  12.6308  12.7255
    12.9394  13.6376  13.8772  13.9350  14.7496  15.1491  15.3099  15.5805
    15.6846  16.9386  17.5697  17.7460  18.1389  18.2587  19.2845  19.7671
    20.5366  21.0633  21.2159  21.2524  21.7185  21.9925  22.0535  22.2611
    22.6816  23.1929  23.3245  23.9345  24.7512  24.9179  25.3783  25.5312
    25.6537  26.0531  26.4020  26.9937  27.4696  28.2422  29.0341  29.1841
    29.8471  29.8904  30.5986  30.6576  31.5258  31.7455

          k = 0.1155 0.0665 0.0000 (  6149 PWs)   bands (ev):

   -14.0941 -14.0257 -13.7454 -13.6582  -1.0056  -0.5892   0.5235   0.5270
     0.6254   0.8892   0.9169   0.9752   0.9907   1.1988   1.2795   2.0018
     3.4428   4.5997   6.4298   7.6945   8.7313   9.7201  12.3207  12.6312
    12.6616  13.6267  13.7222  13.9252  14.6147  15.0733  15.4080  15.5604
    15.7775  16.6656  17.4295  17.7291  18.1649  18.3009  19.5323  19.8204
    20.5649  20.9368  21.2358  21.3186  21.5095  22.1342  22.1667  22.3113
    23.1357  23.1625  23.4632  24.3015  24.7460  24.8821  25.3578  25.6582
    25.9385  26.1563  26.5798  26.8896  27.4877  28.1239  29.0737  29.1678
    29.9785  30.2414  30.6118  30.7297  31.6129  31.8999

          k = 0.1348 0.0776 0.0000 (  6149 PWs)   bands (ev):

   -14.0707 -14.0035 -13.7245 -13.6383  -0.9774  -0.6043   0.3797   0.3856
     0.5517   0.8521   0.8829   0.9352   0.9575   1.1692   1.2512   2.0308
     3.5761   4.6283   6.6294   7.8629   8.7955   9.8422  12.0063  12.3176
    12.5853  13.5534  13.5994  13.8999  14.4652  15.0098  15.5179  15.5286
    15.8838  16.3944  17.2719  17.6533  18.1022  18.5077  19.7689  19.8711
    20.6371  20.7085  21.2782  21.3166  21.4039  22.2455  22.3039  22.3554
    23.1776  23.5932  23.7163  24.6190  24.7490  24.9144  25.2880  25.8276
    26.2055  26.2565  26.5604  27.0469  27.5315  28.0138  29.1187  29.1546
    30.1030  30.5326  30.5791  30.8375  31.7151  32.1037

          k = 0.1540 0.0887 0.0000 (  6149 PWs)   bands (ev):

   -14.0445 -13.9786 -13.7010 -13.6160  -0.9576  -0.6225   0.2321   0.2416
     0.4335   0.8488   0.8556   0.9026   0.9278   1.1342   1.2181   2.0592
     3.7084   4.6568   6.8435   8.0455   8.8641   9.9729  11.6951  12.0048
    12.4969  13.3780  13.5502  13.8541  14.3089  14.9566  15.4807  15.6466
    16.0013  16.1410  17.1085  17.5497  18.0831  18.7142  19.9027  19.9824
    20.4465  20.7352  21.0999  21.3917  21.5079  22.1382  22.4743  22.4941
    23.3074  24.0076  24.0536  24.7254  24.7550  25.2147  25.2329  25.9840
    26.2068  26.3502  26.7116  27.2946  27.6134  27.9247  29.1385  29.1676
    30.2229  30.4435  30.8525  30.9168  31.8636  32.3348

          k = 0.1733 0.0998 0.0000 (  6153 PWs)   bands (ev):

   -14.0157 -13.9513 -13.6754 -13.5916  -0.9546  -0.6420   0.0768   0.1152
     0.2937   0.8125   0.8585   0.8836   0.9171   1.0938   1.1803   2.0869
     3.8376   4.6847   7.0689   8.2393   8.9349  10.1055  11.3946  11.6979
    12.3974  13.2021  13.4758  13.7843  14.1527  14.9105  15.4207  15.7810
    15.9207  16.1287  16.9445  17.4462  18.1084  18.9048  19.8597  20.1683
    20.2256  20.8308  20.9240  21.5038  21.6413  21.9901  22.5275  22.7012
    23.5710  24.2740  24.4369  24.7603  24.8987  25.1501  25.6528  26.0675
    26.1158  26.4307  26.9953  27.5019  27.7593  27.8677  29.1185  29.2171
    30.3356  30.3653  30.9719  31.0213  32.0743  32.5823

          k = 0.1925 0.1108 0.0000 (  6149 PWs)   bands (ev):

   -13.9847 -13.9219 -13.6479 -13.5653  -0.9752  -0.6652  -0.0793   0.0154
     0.1471   0.7684   0.8256   0.8835   0.9475   1.0480   1.1383   2.1137
     3.9623   4.7117   7.3030   8.4417   9.0058  10.2257  11.1168  11.4029
    12.2883  13.0305  13.3763  13.6897  14.0016  14.8692  15.3203  15.7612
    15.9214  16.2612  16.7853  17.3685  18.1695  19.0782  19.6571  20.1188
    20.3373  20.7818  20.9034  21.6117  21.8079  21.8337  22.5249  22.9564
    23.9075  24.3778  24.7279  24.8527  25.1273  25.1990  25.9556  26.1139
    26.2102  26.5000  27.2526  27.6591  27.8490  27.9520  29.1012  29.2639
    30.2912  30.4566  31.0342  31.0858  32.3106  32.5642

          k = 0.2118 0.1219 0.0000 (  6145 PWs)   bands (ev):

   -13.9518 -13.8907 -13.6187 -13.5375  -1.0196  -0.7025  -0.2333  -0.0464
     0.0029   0.7163   0.7787   0.9015   0.9822   1.0040   1.0956   2.1394
     4.0811   4.7382   7.5436   8.6505   9.0744  10.2936  10.8898  11.1337
    12.1721  12.8664  13.2550  13.5725  13.8589  14.8310  15.1618  15.6720
    16.0627  16.3958  16.6414  17.3324  18.2581  19.2371  19.3685  20.0407
    20.4903  20.7058  20.9340  21.6738  21.7024  22.0094  22.5160  23.2424
    24.2340  24.4463  24.7647  24.9731  25.3809  25.3923  26.0766  26.2726
    26.5302  26.5609  27.4457  27.8120  27.8719  28.1160  29.1101  29.3036
    30.2516  30.5575  31.0728  31.1481  32.5269  32.5550

          k = 0.2310 0.1330 0.0000 (  6139 PWs)   bands (ev):

   -13.9176 -13.8582 -13.5885 -13.5086  -1.0821  -0.7637  -0.3827  -0.1487
    -0.0485   0.6571   0.7246   0.9256   0.9452   1.0064   1.0832   2.1640
     4.1928   4.7649   7.7889   8.8638   9.1375  10.2294  10.7224  10.9634
    12.0521  12.7118  13.1174  13.4375  13.7265  14.7950  14.9682  15.6141
    16.1997  16.5272  16.5315  17.3419  18.3677  19.0623  19.3849  19.9188
    20.6358  20.6972  20.9309  21.5365  21.7604  22.2246  22.5207  23.5388
    24.3970  24.5283  24.9238  24.9692  25.4150  25.8086  26.3088  26.3951
    26.6228  26.9282  27.5761  27.9210  27.9708  28.2087  29.1838  29.3314
    30.2452  30.6586  31.0111  31.3220  32.5717  32.7124

          k = 0.2503 0.1441 0.0000 (  6141 PWs)   bands (ev):

   -13.8823 -13.8247 -13.5574 -13.4789  -1.1558  -0.8461  -0.5258  -0.2855
    -0.0160   0.5911   0.6644   0.8686   0.9595   0.9860   1.1296   2.1872
     4.2963   4.7927   8.0375   9.0797   9.1909  10.0414  10.5086  10.9920
    11.9321  12.5680  12.9692  13.2912  13.6052  14.7592  14.7676  15.5445
    16.3260  16.4743  16.6515  17.3924  18.4929  18.7587  19.5228  19.7603
    20.7341  20.7711  20.9114  21.4180  21.7918  22.4430  22.5478  23.8159
    24.3768  24.6201  24.9209  25.2781  25.4503  26.1991  26.3455  26.7152
    26.7387  27.2662  27.6694  28.0038  28.1004  28.2476  29.3321  29.3554
    30.2752  30.7914  30.9106  31.5372  32.6273  32.8720

          k = 0.2695 0.1552 0.0000 (  6131 PWs)   bands (ev):

   -13.8464 -13.7908 -13.5259 -13.4488  -1.2349  -0.9393  -0.6606  -0.4154
     0.0485   0.5188   0.5983   0.7981   0.8969   1.0442   1.1903   2.2087
     4.3901   4.8234   8.2883   9.2252   9.2983   9.8155  10.2821  11.1050
    11.8157  12.4358  12.8151  13.1404  13.4953  14.5695  14.7276  15.4453
    16.4339  16.4807  16.7591  17.4747  18.4676  18.6290  19.5841  19.6518
    20.7929  20.8279  20.9619  21.3244  21.7951  22.5970  22.6592  24.0369
    24.3022  24.7170  24.8887  25.5738  25.6269  26.3493  26.4890  26.9458
    26.9821  27.4885  27.7689  28.1091  28.1964  28.3404  29.3382  29.5743
    30.3373  30.7772  30.9896  31.7578  32.7308  33.0151

          k = 0.2888 0.1663 0.0000 (  6137 PWs)   bands (ev):

   -13.8104 -13.7567 -13.4944 -13.4187  -1.3148  -1.0339  -0.7859  -0.5358
     0.1327   0.4411   0.5267   0.7210   0.8271   1.1106   1.2551   2.2283
     4.4733   4.8585   8.5402   9.2258   9.5157   9.5947  10.0811  11.2348
    11.7062  12.3157  12.6591  12.9917  13.3964  14.3872  14.6952  15.3224
    16.5151  16.5412  16.8412  17.5777  18.1988  18.7709  19.4068  19.7655
    20.7956  20.8716  21.1003  21.2576  21.7722  22.6707  22.8648  24.1705
    24.2208  24.8350  24.8530  25.7870  25.8920  26.4464  26.5981  27.0497
    27.2998  27.5419  27.9289  28.2468  28.3372  28.5201  29.3248  29.8430
    30.4015  30.6564  31.2486  31.9588  32.8867  33.1518

          k = 0.3080 0.1774 0.0000 (  6121 PWs)   bands (ev):

   -13.7748 -13.7230 -13.4634 -13.3889  -1.3922  -1.1237  -0.9002  -0.6454
     0.2254   0.3620   0.4497   0.6381   0.7517   1.1825   1.3219   2.2459
     4.5452   4.8993   8.7923   9.1572   9.4044   9.7332   9.9303  11.3591
    11.6066  12.2082  12.5040  12.8511  13.3082  14.2260  14.6629  15.1900
    16.5616  16.6400  16.8853  17.6894  17.9644  18.9136  19.2343  19.8606
    20.7779  20.9544  21.2178  21.2517  21.7271  22.7582  23.0609  24.1508
    24.2243  24.8146  24.9789  26.0039  26.0554  26.5451  26.7795  26.9769
    27.4712  27.6341  28.1238  28.4322  28.5688  28.7359  29.3162  30.1356
    30.3473  30.6657  31.5570  32.1379  33.0695  33.2591

          k = 0.3273 0.1884 0.0000 (  6123 PWs)   bands (ev):

   -13.7400 -13.6900 -13.4331 -13.3598  -1.4642  -1.2049  -1.0025  -0.7428
     0.2458   0.3568   0.3681   0.5502   0.6713   1.2570   1.3894   2.2610
     4.6068   4.9462   9.0044   9.0446   9.2470   9.8473   9.9502  11.4640
    11.5190  12.1136  12.3521  12.7248  13.2305  14.0919  14.6297  15.0603
    16.5635  16.7659  16.8788  17.7789  17.7979  19.0512  19.0725  19.9310
    20.7909  21.0469  21.2050  21.4052  21.6682  22.8486  23.2436  24.1054
    24.2330  24.7828  25.1173  26.0231  26.3331  26.5724  26.8454  27.0779
    27.3689  27.8791  28.3000  28.6616  28.8449  28.9722  29.3464  30.1938
    30.4458  30.7908  31.8609  32.3300  33.0336  33.3742

          k = 0.3465 0.1995 0.0000 (  6111 PWs)   bands (ev):

   -13.7064 -13.6582 -13.4040 -13.3319  -1.5285  -1.2751  -1.0918  -0.8272
     0.1586   0.2807   0.4362   0.4812   0.5865   1.3317   1.4568   2.2735
     4.6604   4.9979   8.8170   9.0868   9.2938   9.8272  10.1629  11.4455
    11.5362  12.0323  12.2063  12.6193  13.1629  13.9904  14.5938  14.9419
    16.5148  16.8155  16.9128  17.6488  17.8917  18.9229  19.1774  19.9768
    20.8420  21.1417  21.2251  21.5273  21.6359  22.9280  23.4052  24.0915
    24.2264  24.7657  25.2226  26.0043  26.5719  26.5869  26.7080  27.2948
    27.3906  28.0282  28.4595  28.8664  29.0728  29.2726  29.4705  30.0445
    30.7706  30.9423  32.0664  32.5953  32.8446  33.4701

          k = 0.3658 0.2106 0.0000 (  6109 PWs)   bands (ev):

   -13.6745 -13.6280 -13.3765 -13.3053  -1.5833  -1.3328  -1.1674  -0.8979
     0.0591   0.1898   0.3523   0.4966   0.5816   1.4042   1.5230   2.2833
     4.7094   5.0524   8.6262   8.9179   9.5407   9.8428  10.3721  11.3877
    11.5629  11.9639  12.0695  12.5406  13.1053  13.9253  14.5527  14.8407
    16.4163  16.7134  17.0715  17.5614  17.9612  18.7852  19.2837  20.0066
    20.9233  21.2046  21.3105  21.5019  21.7584  22.9841  23.5302  24.1092
    24.2275  24.7738  25.2749  25.9703  26.5617  26.5977  26.7694  27.2990
    27.6831  28.1009  28.6170  28.9999  29.2485  29.6141  29.6407  29.9979
    31.0845  31.1154  32.1289  32.6039  32.9474  33.2573

          k = 0.3850 0.2217 0.0000 (  6108 PWs)   bands (ev):

   -13.6447 -13.5998 -13.3508 -13.2805  -1.6271  -1.3770  -1.2287  -0.9541
    -0.0457   0.0952   0.2502   0.4046   0.6962   1.4721   1.5874   2.2902
     4.7570   5.1077   8.4436   8.7492   9.7829   9.8777  10.5751  11.3477
    11.5371  11.9071  11.9453  12.4909  13.0576  13.8974  14.5032  14.7611
    16.2805  16.5897  17.2404  17.4923  18.0001  18.6562  19.3618  20.0305
    21.0126  21.2490  21.4414  21.4671  21.9213  23.0115  23.5959  24.1496
    24.2627  24.8135  25.2641  25.9314  26.5354  26.5433  26.8722  27.3960
    27.9403  28.1187  28.7827  29.1021  29.4032  29.6552  29.9491  30.2055
    31.2278  31.4386  31.9962  32.5154  32.8242  33.3304

          k = 0.4043 0.2328 0.0000 (  6100 PWs)   bands (ev):

   -13.6172 -13.5738 -13.3272 -13.2577  -1.6588  -1.4069  -1.2752  -0.9957
    -0.1540  -0.0023   0.1442   0.3096   0.8103   1.5336   1.6489   2.2944
     4.8057   5.1623   8.2731   8.5874   9.9194  10.0222  10.7680  11.3292
    11.4646  11.8250  11.8699  12.4653  13.0195  13.9033  14.4415  14.7068
    16.1258  16.4571  17.4142  17.4241  18.0074  18.5322  19.4040  20.0541
    21.0724  21.2979  21.4797  21.6037  22.0889  23.0123  23.5949  24.1996
    24.3460  24.8798  25.1951  25.8960  26.5235  26.5280  26.9449  27.5303
    28.0781  28.1819  28.9626  29.1878  29.5492  29.6511  30.2327  30.5002
    31.3359  31.6085  31.8684  32.3673  32.5997  33.3133

          k = 0.4235 0.2439 0.0000 (  6098 PWs)   bands (ev):

   -13.5924 -13.5504 -13.3059 -13.2371  -1.6776  -1.4225  -1.3067  -1.0224
    -0.2650  -0.1021   0.0357   0.2125   0.9205   1.5869   1.7069   2.2960
     4.8566   5.2155   8.1171   8.4365   9.9696  10.2496  10.9422  11.3397
    11.3610  11.7197  11.8385  12.4543  12.9911  13.9348  14.3644  14.6815
    15.9646  16.3263  17.3452  17.5901  17.9882  18.4103  19.4063  20.0760
    21.0792  21.3524  21.5777  21.7752  22.2570  22.9938  23.5513  24.2484
    24.4657  24.9505  25.0866  25.8748  26.5162  26.5606  27.0254  27.6549
    28.0593  28.3444  29.1587  29.2619  29.6882  29.7188  30.3787  30.7676
    31.4055  31.4123  31.9162  32.1582  32.6887  33.2442

          k = 0.4428 0.2550 0.0000 (  6088 PWs)   bands (ev):

   -13.5705 -13.5296 -13.2872 -13.2189  -1.6832  -1.4236  -1.3232  -1.0342
    -0.3773  -0.2033  -0.0742   0.1143   1.0245   1.6311   1.7604   2.2952
     4.9097   5.2670   7.9771   8.2993  10.0220  10.4648  11.0817  11.2416
    11.3944  11.6201  11.8198  12.4501  12.9720  13.9808  14.2705  14.6875
    15.8005  16.2090  17.2573  17.7492  17.9594  18.2893  19.3720  20.0911
    21.0526  21.4115  21.7301  21.9538  22.4231  22.9681  23.4981  24.2879
    24.6031  24.9595  24.9917  25.8813  26.5271  26.6176  27.1177  27.7583
    28.0484  28.4603  29.3621  29.3703  29.8060  29.8324  30.2898  30.9614
    31.2445  31.4463  31.6555  32.3769  32.8184  33.1872

          k = 0.4620 0.2660 0.0000 (  6094 PWs)   bands (ev):

   -13.5517 -13.5118 -13.2710 -13.2033  -1.6754  -1.4107  -1.3249  -1.0316
    -0.4898  -0.3048  -0.1843   0.0160   1.1200   1.6658   1.8087   2.2925
     4.9637   5.3164   7.8547   8.1782  10.0746  10.6607  11.1176  11.1787
    11.4999  11.5281  11.8123  12.4488  12.9617  14.0303  14.1616  14.7245
    15.6329  16.1152  17.1626  17.8189  17.9933  18.1705  19.3144  20.0936
    21.0096  21.4750  21.9094  22.1244  22.5842  22.9537  23.4596  24.3119
    24.7369  24.8394  24.9747  25.9236  26.5611  26.6732  27.2128  27.8487
    28.0696  28.5386  29.5115  29.5905  29.7930  29.9081  30.1850  30.9436
    31.0325  31.4971  31.6801  32.5639  32.9333  33.1459

          k = 0.4813 0.2771 0.0000 (  6084 PWs)   bands (ev):

   -13.5359 -13.4969 -13.2576 -13.1902  -1.6548  -1.3846  -1.3125  -1.0152
    -0.6008  -0.4054  -0.2929  -0.0811   1.2046   1.6912   1.8509   2.2884
     5.0162   5.3632   7.7515   8.0750  10.1245  10.8283  10.9966  11.2573
    11.4453  11.6306  11.8160  12.4493  12.9595  14.0431  14.0764  14.7871
    15.4639  16.0468  17.0674  17.7816  18.0505  18.1057  19.2585  20.0803
    20.9533  21.5424  22.1018  22.2585  22.7360  22.9815  23.4503  24.3165
    24.6775  24.8939  24.9184  25.9938  26.6117  26.6960  27.3048  27.9431
    28.1356  28.6122  29.4683  29.6910  29.8244  29.9681  30.3135  30.6173
    30.9711  31.5789  31.8029  32.7086  32.9531  33.1207

          k = 0.5005 0.2882 0.0000 (  6090 PWs)   bands (ev):

   -13.5234 -13.4850 -13.2468 -13.1797  -1.6226  -1.3470  -1.2871  -0.9865
    -0.7082  -0.5034  -0.3980  -0.1753   1.2762   1.7084   1.8863   2.2836
     5.0641   5.4064   7.6690   7.9914  10.1682  10.8850  10.9585  11.3420
    11.3747  11.7497  11.8371  12.4511  12.9640  13.9236  14.1166  14.8640
    15.3003  15.9987  16.9799  17.7312  17.9467  18.1736  19.2392  20.0510
    20.8837  21.6130  22.2980  22.3253  22.8720  23.0851  23.4758  24.3023
    24.5450  24.7640  25.0732  26.0727  26.6494  26.6709  27.3991  28.0535
    28.2513  28.7109  29.1012  29.8387  29.9964  30.0203  30.3606  30.5222
    30.8385  31.6619  31.9172  32.7382  32.8854  33.1127

          k = 0.5198 0.2993 0.0000 (  6094 PWs)   bands (ev):

   -13.5139 -13.4761 -13.2387 -13.1718  -1.5812  -1.3009  -1.2511  -0.9480
    -0.8085  -0.5961  -0.4965  -0.2640   1.3330   1.7191   1.9142   2.2790
     5.1044   5.4441   7.6079   7.9287  10.2016  10.7895  11.0508  11.3180
    11.4331  11.8161  11.8989  12.4539  12.9732  13.8139  14.1508  14.9415
    15.1525  15.9627  16.9083  17.6945  17.8539  18.1715  19.2828  20.0098
    20.8033  21.6851  22.3221  22.4958  22.9822  23.2637  23.5355  24.2724
    24.4047  24.6008  25.2332  26.1425  26.5398  26.7117  27.5006  28.1768
    28.4128  28.7596  28.8516  29.8143  29.9618  30.0942  30.4187  30.7117
    30.7321  31.7243  32.0054  32.5005  32.8943  33.1230

          k = 0.5390 0.3104 0.0000 (  6092 PWs)   bands (ev):

   -13.5074 -13.4699 -13.2332 -13.1664  -1.5355  -1.2521  -1.2091  -0.9059
    -0.8948  -0.6786  -0.5830  -0.3425   1.3734   1.7251   1.9339   2.2753
     5.1343   5.4735   7.5682   7.8871  10.2211  10.7171  11.1140  11.2776
    11.5115  11.8555  11.9634  12.4572  12.9845  13.7259  14.1787  15.0061
    15.0328  15.9334  16.8585  17.6835  17.7805  18.1073  19.3775  19.9653
    20.7192  21.7547  22.2843  22.6837  23.0532  23.4866  23.6235  24.2315
    24.2564  24.4192  25.3880  26.1927  26.3797  26.7412  27.5995  28.2956
    28.4842  28.6087  29.0332  29.6775  29.7995  30.0845  30.6257  30.7064
    30.9479  31.7518  32.0574  32.2027  32.8526  33.1481

          k = 0.5583 0.3215 0.0000 (  6094 PWs)   bands (ev):

   -13.5037 -13.4664 -13.2300 -13.1633  -1.4954  -1.2120  -1.1709  -0.9588
    -0.8678  -0.7400  -0.6473  -0.4015   1.3969   1.7282   1.9455   2.2730
     5.1525   5.4923   7.5477   7.8651  10.2267  10.6732  11.1549  11.2541
    11.5586  11.9012  11.9876  12.4601  12.9942  13.6698  14.1983  14.9537
    15.0478  15.9109  16.8314  17.7006  17.7329  18.0203  19.4750  19.9336
    20.6459  21.8125  22.2395  22.8526  23.0696  23.7218  23.7246  24.1090
    24.1837  24.2367  25.5159  26.2202  26.2259  26.7559  27.6704  28.3068
    28.3895  28.8121  29.2336  29.5026  29.6805  29.9360  30.8021  30.8147
    31.1448  31.7366  31.8925  32.1242  32.7727  33.1737

          k = 0.5775 0.3325 0.0000 (  6090 PWs)   bands (ev):

   -13.5026 -13.4653 -13.2290 -13.1623  -1.4778  -1.1964  -1.1534  -0.9819
    -0.8536  -0.7629  -0.6730  -0.4253   1.4042   1.7293   1.9491   2.2722
     5.1584   5.4986   7.5424   7.8592  10.2258  10.6590  11.1712  11.2467
    11.5720  11.9498  11.9645  12.4614  12.9984  13.6510  14.2062  14.9254
    15.0619  15.9014  16.8234  17.7160  17.7214  17.9704  19.5154  19.9280
    20.6120  21.8386  22.2171  22.9605  23.0370  23.7850  23.8774  24.0243
    24.1221  24.1465  25.5701  26.1562  26.2284  26.7593  27.6917  28.2564
    28.4214  28.9288  29.3569  29.3932  29.6359  29.8249  30.8738  30.8828
    31.2462  31.7121  31.7634  32.1288  32.7308  33.1817

          k = 0.5775 0.3215 0.0000 (  6098 PWs)   bands (ev):

   -13.5028 -13.4656 -13.2292 -13.1625  -1.4830  -1.2004  -1.1587  -0.9760
    -0.8570  -0.7572  -0.6658  -0.4186   1.4026   1.7290   1.9483   2.2724
     5.1571   5.4972   7.5430   7.8600  10.2269  10.6624  11.1652  11.2484
    11.5697  11.9179  11.9898  12.4609  12.9971  13.6555  14.2035  14.9331
    15.0583  15.9045  16.8252  17.7117  17.7206  17.9888  19.5060  19.9245
    20.6234  21.8300  22.2245  22.9165  23.0548  23.7700  23.8314  24.0503
    24.1091  24.2049  25.5567  26.1750  26.2272  26.7591  27.6891  28.2632
    28.4153  28.8916  29.3208  29.4214  29.6484  29.8638  30.8549  30.8596
    31.2175  31.7244  31.7972  32.1307  32.7430  33.1819

          k = 0.5775 0.3104 0.0000 (  6094 PWs)   bands (ev):

   -13.5036 -13.4663 -13.2299 -13.1632  -1.4976  -1.2121  -1.1732  -0.9588
    -0.8674  -0.7405  -0.6453  -0.3996   1.3979   1.7281   1.9459   2.2729
     5.1530   5.4927   7.5450   7.8622  10.2320  10.6722  11.1484  11.2532
    11.5632  11.8768  12.0138  12.4595  12.9930  13.6683  14.1962  14.9546
    15.0492  15.9143  16.8301  17.6911  17.7334  18.0353  19.4808  19.9108
    20.6573  21.8077  22.2444  22.8375  23.0584  23.7436  23.7566  24.0797
    24.1054  24.3119  25.5288  26.2183  26.2234  26.7582  27.6852  28.2686
    28.4065  28.8038  29.2326  29.4858  29.6801  29.9562  30.7990  30.8110
    31.1533  31.7574  31.8704  32.1402  32.7744  33.1866

          k = 0.5775 0.2993 0.0000 (  6094 PWs)   bands (ev):

   -13.5049 -13.4675 -13.2309 -13.1642  -1.5203  -1.2310  -1.1951  -0.9310
    -0.8850  -0.7128  -0.6132  -0.3699   1.3905   1.7264   1.9421   2.2735
     5.1463   5.4852   7.5472   7.8650  10.2428  10.6880  11.1195  11.2608
    11.5522  11.8302  12.0361  12.4570  12.9859  13.6882  14.1841  14.9892
    15.0353  15.9318  16.8377  17.6678  17.7540  18.1019  19.4437  19.8828
    20.7118  21.7740  22.2748  22.7379  23.0303  23.6493  23.7578  24.0544
    24.1657  24.4264  25.4966  26.2162  26.2780  26.7575  27.6809  28.2548
    28.4115  28.6920  29.1197  29.5532  29.7269  30.0735  30.7235  30.7497
    31.0713  31.8037  31.9553  32.1614  32.8204  33.1977

          k = 0.5775 0.2882 0.0000 (  6090 PWs)   bands (ev):

   -13.5065 -13.4691 -13.2324 -13.1657  -1.5487  -1.2559  -1.2223  -0.9086
    -0.8937  -0.6760  -0.5717  -0.3316   1.3809   1.7239   1.9370   2.2742
     5.1372   5.4752   7.5489   7.8672  10.2609  10.7099  11.0780  11.2711
    11.5334  11.7839  12.0566  12.4535  12.9756  13.7143  14.1668  15.0175
    15.0364  15.9575  16.8482  17.6479  17.7820  18.1826  19.3978  19.8408
    20.7809  21.7315  22.3131  22.6231  22.9717  23.5493  23.7842  24.0267
    24.2318  24.5390  25.4664  26.2081  26.3450  26.7583  27.6722  28.2245
    28.4313  28.5700  28.9973  29.5964  29.7832  30.2001  30.6563  30.6853
    30.9832  31.8531  32.0326  32.1958  32.8761  33.2144

          k = 0.5775 0.2771 0.0000 (  6100 PWs)   bands (ev):

   -13.5086 -13.4711 -13.2342 -13.1674  -1.5811  -1.2852  -1.2528  -0.9360
    -0.8489  -0.6321  -0.5227  -0.2868   1.3693   1.7205   1.9309   2.2749
     5.1259   5.4627   7.5490   7.8680  10.2874  10.7378  11.0245  11.2836
    11.5000  11.7462  12.0752  12.4487  12.9620  13.7455  14.1442  14.9969
    15.0948  15.9919  16.8618  17.6349  17.8164  18.2733  19.3451  19.7871
    20.8572  21.6822  22.3570  22.4978  22.8919  23.4476  23.8293  23.9978
    24.2992  24.6457  25.4409  26.1991  26.4152  26.7617  27.6510  28.1964
    28.4435  28.4558  28.8722  29.5938  29.8420  30.3256  30.6255  30.6277
    30.8990  31.8972  32.0927  32.2377  32.9380  33.2337

          k = 0.5775 0.2660 0.0000 (  6100 PWs)   bands (ev):

   -13.5111 -13.4734 -13.2364 -13.1695  -1.6159  -1.3174  -1.2854  -0.9660
    -0.7979  -0.5830  -0.4681  -0.2370   1.3562   1.7161   1.9238   2.2755
     5.1126   5.4482   7.5468   7.8664  10.3234  10.7719  10.9603  11.2985
    11.4469  11.7236  12.0921  12.4426  12.9454  13.7807  14.1166  14.9743
    15.1635  16.0352  16.8789  17.6306  17.8565  18.3702  19.2874  19.7244
    20.9324  21.6277  22.3664  22.4057  22.8024  23.3452  23.8865  23.9679
    24.3660  24.7435  25.4202  26.1895  26.4855  26.7690  27.6091  28.1845
    28.3173  28.4769  28.7479  29.5361  29.8947  30.4363  30.5833  30.6562
    30.8283  31.9297  32.1378  32.2699  33.0055  33.2525

          k = 0.5775 0.2550 0.0000 (  6088 PWs)   bands (ev):

   -13.5139 -13.4760 -13.2388 -13.1719  -1.6519  -1.3512  -1.3190  -0.9973
    -0.7421  -0.5299  -0.4090  -0.1833   1.3419   1.7107   1.9160   2.2761
     5.0977   5.4319   7.5414   7.8618  10.3692  10.8120  10.8870  11.3152
    11.3756  11.7155  12.1075  12.4352  12.9259  13.8190  14.0843  14.9501
    15.2412  16.0871  16.8997  17.6362  17.9014  18.4688  19.2277  19.6544
    20.9977  21.5687  22.2348  22.4569  22.7150  23.2425  23.9328  23.9547
    24.4308  24.8300  25.4037  26.1795  26.5534  26.7819  27.5447  28.1893
    28.1933  28.4954  28.6268  29.4313  29.9314  30.5219  30.5636  30.7477
    30.7803  31.9467  32.1724  32.2742  33.0805  33.2697

          k = 0.5775 0.2439 0.0000 (  6084 PWs)   bands (ev):

   -13.5169 -13.4789 -13.2414 -13.1745  -1.6884  -1.3858  -1.3530  -1.0291
    -0.6825  -0.4738  -0.3466  -0.1267   1.3266   1.7044   1.9076   2.2764
     5.0813   5.4142   7.5321   7.8538  10.4251  10.8060  10.8579  11.2879
    11.3379  11.7173  12.1215  12.4266  12.9038  13.8595  14.0478  14.9251
    15.3269  16.1472  16.9249  17.6519  17.9500  18.5610  19.1721  19.5784
    21.0435  21.5058  22.1066  22.5110  22.6412  23.1399  23.9013  24.0215
    24.4921  24.9034  25.3901  26.1687  26.6162  26.8014  27.4639  28.0693
    28.2032  28.5077  28.5193  29.2966  29.9446  30.5689  30.5977  30.7553
    30.8794  31.9464  32.1811  32.2578  33.1651  33.2860

          k = 0.5775 0.2328 0.0000 (  6080 PWs)   bands (ev):

   -13.5202 -13.4820 -13.2443 -13.1773  -1.7248  -1.4205  -1.3868  -1.0610
    -0.6201  -0.4154  -0.2815  -0.0679   1.3107   1.6972   1.8988   2.2766
     5.0637   5.3954   7.5186   7.8422  10.4906  10.7195  10.9086  11.1949
    11.3609  11.7249  12.1343  12.4169  12.8795  13.9012  14.0079  14.8996
    15.4197  16.2150  16.9546  17.6780  18.0014  18.6304  19.1353  19.4972
    21.0605  21.4394  21.9851  22.5673  22.5926  23.0375  23.8653  24.0922
    24.5486  24.9624  25.3785  26.1566  26.6704  26.8281  27.3761  27.9504
    28.2028  28.3991  28.5527  29.1478  29.9363  30.6065  30.6612  30.7629
    31.0226  31.9287  32.1120  32.2743  33.2585  33.3033

          k = 0.5775 0.2217 0.0000 (  6072 PWs)   bands (ev):

   -13.5236 -13.4853 -13.2473 -13.1802  -1.7607  -1.4549  -1.4200  -1.0925
    -0.5554  -0.3555  -0.2146  -0.0075   1.2943   1.6890   1.8896   2.2765
     5.0453   5.3758   7.5006   7.8270  10.5651  10.6285  10.9631  11.0958
    11.3898  11.7357  12.1460  12.4062  12.8535  13.9427  13.9659  14.8738
    15.5186  16.2898  16.9892  17.7142  18.0549  18.6507  19.1422  19.4110
    21.0433  21.3694  21.8715  22.5781  22.6251  22.9359  23.8265  24.1633
    24.5987  25.0069  25.3687  26.1422  26.7109  26.8617  27.2907  27.8361
    28.1760  28.2943  28.6116  28.9973  29.9166  30.6586  30.7171  30.8026
    31.1699  31.8956  31.9885  32.3097  33.3213  33.3593

          k = 0.5775 0.2106 0.0000 (  6068 PWs)   bands (ev):

   -13.5272 -13.4887 -13.2505 -13.1833  -1.7957  -1.4887  -1.4525  -1.1233
    -0.4891  -0.2944  -0.1462   0.0539   1.2776   1.6800   1.8802   2.2763
     5.0261   5.3556   7.4780   7.8082  10.5342  10.6476  10.9906  11.0224
    11.4261  11.7481  12.1566  12.3947  12.8264  13.9197  13.9865  14.8479
    15.6229  16.3707  17.0289  17.7599  18.1096  18.6087  19.2040  19.3204
    20.9935  21.2961  21.7648  22.6012  22.6823  22.8370  23.7844  24.2330
    24.6408  25.0375  25.3610  26.1245  26.7312  26.9001  27.2165  27.7269
    28.1227  28.1947  28.6921  28.8554  29.8965  30.7156  30.7610  30.8710
    31.3167  31.8313  31.8557  32.3507  33.3443  33.4603

          k = 0.5775 0.1995 0.0000 (  6078 PWs)   bands (ev):

   -13.5309 -13.4922 -13.2537 -13.1864  -1.8298  -1.5215  -1.4840  -1.1533
    -0.4217  -0.2328  -0.0771   0.1160   1.2609   1.6702   1.8706   2.2757
     5.0064   5.3351   7.4510   7.7862  10.4382  10.7356  10.8876  11.0780
    11.4723  11.7613  12.1663  12.3827  12.7985  13.8739  14.0280  14.8219
    15.7318  16.4569  17.0737  17.8142  18.1646  18.5209  19.2184  19.3101
    20.9193  21.2194  21.6634  22.6580  22.7065  22.7732  23.7389  24.2990
    24.6742  25.0559  25.3567  26.1029  26.7255  26.9399  27.1589  27.6235
    28.0515  28.0976  28.7323  28.7876  29.8840  30.7756  30.7891  30.9551
    31.4593  31.6685  31.8027  32.3956  33.3714  33.5595

          k = 0.5775 0.1884 0.0000 (  6078 PWs)   bands (ev):

   -13.5346 -13.4958 -13.2570 -13.1896  -1.8625  -1.5532  -1.5142  -1.1822
    -0.3537  -0.1709  -0.0075   0.1782   1.2442   1.6597   1.8611   2.2749
     4.9865   5.3146   7.4198   7.7613  10.3414  10.7817  10.8274  11.1346
    11.5311  11.7747  12.1752  12.3708  12.7703  13.8274  14.0686  14.7960
    15.8448  16.5473  17.1235  17.8760  18.2192  18.4060  19.1165  19.4296
    20.8314  21.1394  21.5668  22.6209  22.7423  22.8197  23.6898  24.3580
    24.6999  25.0641  25.3575  26.0768  26.6942  26.9766  27.1149  27.5264
    27.9716  27.9992  28.6388  28.8922  29.8838  30.7955  30.8393  31.0327
    31.5098  31.5989  31.7531  32.4440  33.4034  33.6535

          k = 0.5775 0.1774 0.0000 (  6078 PWs)   bands (ev):

   -13.5384 -13.4993 -13.2603 -13.1929  -1.8940  -1.5836  -1.5432  -1.2099
    -0.2855  -0.1093   0.0619   0.2402   1.2278   1.6486   1.8515   2.2739
     4.9664   5.2941   7.3850   7.7338  10.2447  10.6776  10.9157  11.1922
    11.6041  11.7877  12.1831  12.3594  12.7424  13.7810  14.1075  14.7699
    15.9612  16.6411  17.1781  17.9429  18.2612  18.2864  19.0070  19.5599
    20.7397  21.0560  21.4754  22.5225  22.8427  22.8817  23.6372  24.4043
    24.7227  25.0644  25.3643  26.0463  26.6455  27.0053  27.0723  27.4361
    27.8838  27.9042  28.5840  29.0020  29.8986  30.7802  30.8891  31.0613
    31.4226  31.6929  31.7422  32.4954  33.4409  33.7390

          k = 0.5775 0.1663 0.0000 (  6074 PWs)   bands (ev):

   -13.5422 -13.5029 -13.2636 -13.1961  -1.9239  -1.6127  -1.5708  -1.2363
    -0.2176  -0.0484   0.1306   0.3015   1.2117   1.6371   1.8422   2.2726
     4.9465   5.2740   7.3473   7.7043  10.1490  10.5746  10.9949  11.2563
    11.6913  11.8002  12.1903  12.3492  12.7151  13.7352  14.1446  14.7435
    16.0805  16.7371  17.2370  18.0056  18.1370  18.3278  18.8921  19.6934
    20.6519  20.9695  21.3897  22.4234  22.9448  22.9525  23.5819  24.4318
    24.7512  25.0591  25.3769  26.0114  26.5890  27.0179  27.0224  27.3536
    27.7736  27.8331  28.5718  29.1144  29.9296  30.7414  30.8477  31.0671
    31.4522  31.6649  31.8544  32.5492  33.4839  33.8108

          k = 0.5775 0.1552 0.0000 (  6074 PWs)   bands (ev):

   -13.5458 -13.5064 -13.2669 -13.1993  -1.9522  -1.6402  -1.5969  -1.2613
    -0.1505   0.0114   0.1983   0.3616   1.1960   1.6251   1.8330   2.2712
     4.9269   5.2544   7.3073   7.6732  10.0552  10.4739  11.0572  11.3334
    11.7915  11.8121  12.1966  12.3412  12.6889  13.6905  14.1796  14.7166
    16.2022  16.8345  17.2999  17.9510  18.1111  18.3784  18.7746  19.8247
    20.5749  20.8799  21.3105  22.3251  23.0080  23.0624  23.5249  24.4388
    24.7921  25.0499  25.3937  25.9725  26.5312  26.9449  27.0255  27.2800
    27.6547  27.7781  28.5999  29.2276  29.9774  30.6809  30.6920  31.1283
    31.5429  31.6389  31.9645  32.6043  33.5324  33.8472

          k = 0.5775 0.1441 0.0000 (  6078 PWs)   bands (ev):

   -13.5494 -13.5098 -13.2701 -13.2023  -1.9789  -1.6662  -1.6214  -1.2848
    -0.0846   0.0697   0.2645   0.4203   1.1809   1.6128   1.8241   2.2695
     4.9078   5.2355   7.2657   7.6409   9.9641  10.3765  11.1005  11.4247
    11.8227  11.9030  12.2021  12.3368  12.6639  13.6473  14.2122  14.6889
    16.3256  16.9322  17.3659  17.7967  18.1713  18.4271  18.6624  19.9462
    20.5163  20.7876  21.2382  22.2281  23.0675  23.1645  23.4692  24.4336
    24.8454  25.0386  25.4119  25.9300  26.4755  26.8536  27.0140  27.2170
    27.5341  27.7341  28.6619  29.3405  30.0411  30.5024  30.6042  31.2064
    31.6186  31.6518  32.0638  32.6591  33.5860  33.8288

          k = 0.5775 0.1330 0.0000 (  6082 PWs)   bands (ev):

   -13.5529 -13.5131 -13.2731 -13.2053  -2.0037  -1.6904  -1.6443  -1.3069
    -0.0204   0.1260   0.3286   0.4769   1.1664   1.6003   1.8155   2.2678
     4.8893   5.2173   7.2234   7.6081   9.8764  10.2830  11.1289  11.5245
    11.8326  12.0234  12.2068  12.3379  12.6407  13.6056  14.2423  14.6600
    16.4501  17.0291  17.4343  17.6319  18.2105  18.4731  18.5766  20.0445
    20.4887  20.6930  21.1734  22.1330  23.1175  23.2488  23.4212  24.4311
    24.9069  25.0262  25.4284  25.8846  26.4235  26.7501  26.9889  27.1657
    27.4159  27.6954  28.7507  29.4523  30.1192  30.3083  30.5154  31.2861
    31.6066  31.7589  32.1512  32.7119  33.6439  33.7957

          k = 0.5775 0.1219 0.0000 (  6086 PWs)   bands (ev):

   -13.5562 -13.5162 -13.2761 -13.2082  -2.0268  -1.7130  -1.6656  -1.3273
     0.0416   0.1798   0.3901   0.5311   1.1526   1.5877   1.8073   2.2659
     4.8716   5.2001   7.1810   7.5752   9.7928  10.1941  11.1475  11.6252
    11.8415  12.1509  12.2108  12.3474  12.6192  13.5657  14.2699  14.6293
    16.5750  17.1242  17.4631  17.5047  18.1848  18.5153  18.5580  20.1007
    20.5067  20.5985  21.1168  22.0405  23.1444  23.3052  23.3948  24.4466
    24.9723  25.0139  25.4400  25.8369  26.3754  26.6423  26.9529  27.1256
    27.3033  27.6561  28.8591  29.5597  30.1218  30.2098  30.4201  31.3616
    31.5966  31.8603  32.2263  32.7613  33.7051  33.7666

          k = 0.5775 0.1108 0.0000 (  6094 PWs)   bands (ev):

   -13.5593 -13.5192 -13.2788 -13.2109  -2.0481  -1.7337  -1.6851  -1.3461
     0.1009   0.2308   0.4487   0.5826   1.1396   1.5752   1.7996   2.2640
     4.8547   5.1839   7.1395   7.5428   9.7140  10.1106  11.1597  11.7196
    11.8494  12.2137  12.2828  12.3701  12.5999  13.5276  14.2948  14.5964
    16.6995  17.2162  17.2949  17.5741  18.0933  18.5545  18.6067  20.1118
    20.4903  20.5836  21.0706  21.9512  23.1333  23.3269  23.4055  24.4909
    25.0011  25.0390  25.4446  25.7877  26.3302  26.5386  26.9109  27.0933
    27.1989  27.6114  28.9812  29.6463  29.9650  30.3086  30.3244  31.4281
    31.5872  31.9493  32.2892  32.8072  33.7462  33.7699

          k = 0.5775 0.0998 0.0000 (  6092 PWs)   bands (ev):

   -13.5622 -13.5220 -13.2814 -13.2134  -2.0674  -1.7526  -1.7029  -1.3632
     0.1571   0.2785   0.5037   0.6308   1.1275   1.5628   1.7924   2.2621
     4.8390   5.1689   7.0994   7.5114   9.6407  10.0329  11.1678  11.8006
    11.8566  12.2161  12.3931  12.4345  12.5826  13.4911  14.3171  14.5606
    16.8228  17.1283  17.3040  17.6428  17.9744  18.5923  18.6840  20.0975
    20.3939  20.6672  21.0403  21.8658  23.0919  23.3143  23.4465  24.5661
    24.9900  25.1009  25.4425  25.7377  26.2847  26.4482  26.8672  27.0618
    27.1085  27.5577  29.1116  29.6347  29.9189  30.2276  30.4178  31.4811
    31.5767  32.0203  32.3404  32.8516  33.7413  33.8326

          k = 0.5775 0.0887 0.0000 (  6092 PWs)   bands (ev):

   -13.5649 -13.5245 -13.2838 -13.2157  -2.0848  -1.7696  -1.7188  -1.3786
     0.2095   0.3226   0.5546   0.6753   1.1162   1.5508   1.7857   2.2602
     4.8244   5.1551   7.0615   7.4816   9.5733   9.9618  11.1730  11.8572
    11.8693  12.2176  12.4551  12.5649  12.5710  13.4560  14.3365  14.5213
    16.9430  16.9671  17.3863  17.7087  17.8493  18.6275  18.7709  20.0746
    20.2951  20.7402  21.0388  21.7853  23.0377  23.2747  23.5007  24.6664
    24.9796  25.1512  25.4401  25.6880  26.2329  26.3810  26.8244  27.0033
    27.0592  27.4929  29.2454  29.5119  29.9999  30.1381  30.5301  31.5159
    31.5642  32.0687  32.3806  32.8986  33.7483  33.8946

          k = 0.5775 0.0776 0.0000 (  6090 PWs)   bands (ev):

   -13.5673 -13.5268 -13.2859 -13.2178  -2.1002  -1.7847  -1.7330  -1.3922
     0.2577   0.3626   0.6011   0.7159   1.1060   1.5393   1.7797   2.2584
     4.8112   5.1428   7.0264   7.4539   9.5126   9.8977  11.1762  11.8660
    11.9103  12.2185  12.5282  12.5551  12.7092  13.4220  14.3529  14.4784
    16.8116  17.0612  17.4615  17.7263  17.7707  18.6604  18.8597  20.0505
    20.1976  20.7743  21.0818  21.7107  22.9806  23.2181  23.5586  24.7814
    24.9702  25.1772  25.4524  25.6396  26.1720  26.3413  26.7836  26.9314
    27.0376  27.4159  29.3727  29.3776  30.0573  30.1157  30.6452  31.5283
    31.5492  32.0923  32.4108  32.9524  33.7650  33.9532

          k = 0.5775 0.0665 0.0000 (  6086 PWs)   bands (ev):

   -13.5694 -13.5288 -13.2878 -13.2196  -2.1136  -1.7978  -1.7453  -1.4041
     0.3010   0.3980   0.6425   0.7520   1.0968   1.5286   1.7743   2.2567
     4.7994   5.1319   6.9947   7.4289   9.4588   9.8411  11.1781  11.8705
    11.9390  12.2189  12.5433  12.6151  12.8492  13.3885  14.3644  14.4330
    16.6672  17.1736  17.5282  17.6118  17.8259  18.6913  18.9457  20.0283
    20.1034  20.7731  21.1593  21.6429  22.9253  23.1536  23.6157  24.8969
    24.9620  25.1742  25.4928  25.5938  26.1073  26.3223  26.7453  26.8685
    27.0218  27.3265  29.2441  29.5009  29.9909  30.2405  30.7609  31.5166
    31.5312  32.0917  32.4322  33.0146  33.7868  34.0067

          k = 0.5775 0.0554 0.0000 (  6094 PWs)   bands (ev):

   -13.5713 -13.5306 -13.2894 -13.2212  -2.1250  -1.8089  -1.7558  -1.4142
     0.3390   0.4287   0.6785   0.7833   1.0887   1.5189   1.7696   2.2552
     4.7893   5.1225   6.9669   7.4068   9.4125   9.7925  11.1791  11.8739
    11.9566  12.2189  12.5346  12.7071  12.9852  13.3552  14.3566  14.3998
    16.5363  17.2794  17.5085  17.5847  17.8735  18.7206  19.0258  20.0067
    20.0168  20.7567  21.2475  21.5830  22.8747  23.0883  23.6692  24.9528
    24.9869  25.1721  25.5454  25.5643  26.0438  26.3163  26.7099  26.8172
    27.0092  27.2262  29.1324  29.6041  29.9474  30.3692  30.8746  31.4834
    31.5076  32.0706  32.4461  33.0838  33.8095  34.0530

          k = 0.5775 0.0443 0.0000 (  6094 PWs)   bands (ev):

   -13.5728 -13.5320 -13.2908 -13.2225  -2.1344  -1.8181  -1.7644  -1.4225
     0.3710   0.4543   0.7085   0.8095   1.0819   1.5105   1.7657   2.2538
     4.7808   5.1147   6.9435   7.3882   9.3741   9.7521  11.1795  11.8766
    11.9669  12.2186  12.5276  12.8002  13.1118  13.3229  14.3097  14.3995
    16.4223  17.3767  17.4196  17.6290  17.9121  18.7480  19.0968  19.9328
    19.9942  20.7364  21.3313  21.5322  22.8308  23.0280  23.7167  24.9466
    25.0001  25.2266  25.5128  25.6400  25.9833  26.3184  26.6779  26.7777
    26.9992  27.1183  29.0403  29.6675  29.9432  30.4990  30.9830  31.4288
    31.4822  32.0337  32.4541  33.1554  33.8293  34.0901

          k = 0.5775 0.0333 0.0000 (  6090 PWs)   bands (ev):

   -13.5740 -13.5331 -13.2919 -13.2236  -2.1417  -1.8252  -1.7710  -1.4290
     0.3965   0.4745   0.7324   0.8302   1.0765   1.5036   1.7626   2.2528
     4.7741   5.1086   6.9249   7.3733   9.3439   9.7204  11.1796  11.8786
    11.9726  12.2183  12.5224  12.8899  13.2095  13.3049  14.2529  14.4052
    16.3287  17.3477  17.4632  17.6591  17.9410  18.7729  19.1560  19.8636
    19.9819  20.7173  21.4030  21.4914  22.7950  22.9768  23.7564  24.9403
    24.9693  25.3135  25.4822  25.7260  25.9269  26.3260  26.6509  26.7490
    26.9905  27.0096  28.9686  29.6834  29.9817  30.6276  31.0799  31.3584
    31.4573  31.9871  32.4579  33.2236  33.8444  34.1158

          k = 0.5775 0.0222 0.0000 (  6086 PWs)   bands (ev):

   -13.5748 -13.5339 -13.2926 -13.2243  -2.1468  -1.8303  -1.7758  -1.4336
     0.4151   0.4890   0.7496   0.8452   1.0725   1.4984   1.7603   2.2520
     4.7692   5.1042   6.9114   7.3625   9.3221   9.6976  11.1796  11.8800
    11.9757  12.2179  12.5187  12.9731  13.2130  13.3573  14.1986  14.4100
    16.2590  17.2948  17.5364  17.6735  17.9606  18.7935  19.2005  19.8097
    19.9733  20.7020  21.4576  21.4616  22.7687  22.9379  23.7863  24.9275
    24.9428  25.3933  25.4592  25.8049  25.8793  26.3373  26.6303  26.7296
    26.9060  26.9870  28.9176  29.6758  30.0340  30.7522  31.1472  31.2891
    31.4354  31.9388  32.4591  33.2808  33.8539  34.1282

          k = 0.5775 0.0111 0.0000 (  6086 PWs)   bands (ev):

   -13.5753 -13.5344 -13.2931 -13.2248  -2.1500  -1.8334  -1.7787  -1.4364
     0.4264   0.4978   0.7601   0.8543   1.0701   1.4952   1.7590   2.2515
     4.7663   5.1015   6.9032   7.3560   9.3090   9.6838  11.1795  11.8808
    11.9772  12.2177  12.5166  13.0478  13.1701  13.4197  14.1572  14.4131
    16.2158  17.2624  17.5927  17.6718  17.9716  18.8074  19.2283  19.7752
    19.9681  20.6922  21.4433  21.4919  22.7525  22.9137  23.8049  24.9060
    24.9372  25.4435  25.4517  25.8270  25.8799  26.3494  26.6175  26.7185
    26.8289  26.9838  28.8871  29.6659  30.0734  30.8663  31.1284  31.2756
    31.4202  31.9004  32.4592  33.3194  33.8587  34.1302

          k = 0.5775 0.0000 0.0000 (  6086 PWs)   bands (ev):

   -13.5755 -13.5346 -13.2932 -13.2249  -2.1510  -1.8344  -1.7796  -1.4373
     0.4303   0.5008   0.7636   0.8573   1.0693   1.4941   1.7585   2.2513
     4.7653   5.1006   6.9005   7.3538   9.3046   9.6792  11.1795  11.8811
    11.9776  12.2176  12.5159  13.1070  13.1207  13.4438  14.1412  14.4141
    16.2012  17.2515  17.6195  17.6635  17.9751  18.8123  19.2377  19.7633
    19.9664  20.6888  21.4372  21.5035  22.7471  22.9055  23.8112  24.8977
    24.9359  25.4396  25.4723  25.8152  25.8995  26.3553  26.6131  26.7149
    26.7989  26.9827  28.8770  29.6620  30.0878  30.9314  31.0808  31.2873
    31.4147  31.8852  32.4591  33.3332  33.8601  34.1294

          k = 0.5583 0.0000 0.0000 (  6094 PWs)   bands (ev):

   -13.5773 -13.5363 -13.2947 -13.2264  -2.1458  -1.8293  -1.7739  -1.4318
     0.4317   0.5022   0.7649   0.8585   1.0577   1.4930   1.7536   2.2521
     4.7592   5.1021   6.9118   7.3704   9.3019   9.6786  11.1769  11.8719
    11.9761  12.2147  12.5258  13.1096  13.1242  13.4463  14.1375  14.4178
    16.2067  17.2578  17.6257  17.6581  17.9695  18.8161  19.2283  19.7630
    19.9515  20.6973  21.4418  21.4804  22.7538  22.9101  23.7911  24.8660
    24.9039  25.4802  25.5171  25.7656  25.9106  26.3922  26.6111  26.7308
    26.8017  26.9814  28.8735  29.6569  30.1039  30.9298  31.0223  31.2895
    31.4039  31.8691  32.4360  33.3336  33.7645  34.1120

          k = 0.5390 0.0000 0.0000 (  6100 PWs)   bands (ev):

   -13.5826 -13.5413 -13.2992 -13.2307  -2.1300  -1.8142  -1.7566  -1.4153
     0.4360   0.5062   0.7687   0.8623   1.0241   1.4889   1.7390   2.2543
     4.7428   5.1049   6.9464   7.4193   9.2931   9.6766  11.1686  11.8468
    11.9717  12.2059  12.5544  13.1173  13.1349  13.4537  14.1262  14.4287
    16.2239  17.2761  17.6418  17.6441  17.9523  18.8278  19.2004  19.7623
    19.9099  20.7205  21.4128  21.4557  22.7723  22.9234  23.7337  24.7318
    24.9130  25.5059  25.6552  25.6808  25.9301  26.4753  26.6060  26.7668
    26.8099  26.9872  28.8637  29.6403  30.1504  30.8621  30.9244  31.2980
    31.3697  31.8088  32.3697  33.3353  33.5692  34.0582

          k = 0.5198 0.0000 0.0000 (  6093 PWs)   bands (ev):

   -13.5914 -13.5496 -13.3066 -13.2379  -2.1038  -1.7890  -1.7278  -1.3880
     0.4430   0.5130   0.7752   0.8685   0.9719   1.4797   1.7157   2.2574
     4.7197   5.1052   7.0056   7.4977   9.2768   9.6733  11.1535  11.8111
    11.9654  12.1914  12.5983  13.1301  13.1534  13.4660  14.1077  14.4463
    16.2539  17.3047  17.6142  17.6746  17.9233  18.8483  19.1544  19.7625
    19.8490  20.7530  21.3050  21.4782  22.7978  22.9432  23.6465  24.5935
    24.9273  25.5212  25.5473  25.8668  25.9506  26.5665  26.6010  26.7863
    26.8236  27.0311  28.8489  29.6089  30.2217  30.6306  30.9140  31.3061
    31.3179  31.6860  32.2695  33.3394  33.3450  33.8455

          k = 0.5005 0.0000 0.0000 (  6103 PWs)   bands (ev):

   -13.6034 -13.5610 -13.3168 -13.2477  -2.0675  -1.7541  -1.6878  -1.3500
     0.4529   0.5224   0.7841   0.8771   0.9047   1.4633   1.6846   2.2605
     4.6938   5.0996   7.0899   7.6024   9.2507   9.6683  11.1301  11.7706
    11.9580  12.1729  12.6537  13.1477  13.1804  13.4829  14.0831  14.4697
    16.2983  17.3411  17.5750  17.7168  17.8823  18.8793  19.0913  19.7650
    19.7770  20.7899  21.1634  21.5082  22.8237  22.9661  23.5389  24.4774
    24.9428  25.3807  25.6023  25.9645  26.0455  26.6040  26.6448  26.7673
    26.8432  27.1282  28.8306  29.5568  30.3095  30.3547  30.8985  31.2040
    31.3549  31.4975  32.1505  33.0808  33.3477  33.4730

          k = 0.4813 0.0000 0.0000 (  6103 PWs)   bands (ev):

   -13.6187 -13.5754 -13.3297 -13.2602  -2.0215  -1.7097  -1.6366  -1.3015
     0.4654   0.5344   0.7955   0.8262   0.8880   1.4386   1.6469   2.2630
     4.6675   5.0863   7.1990   7.7300   9.2121   9.6608  11.0973  11.7303
    11.9498  12.1537  12.7172  13.1699  13.2163  13.5042  14.0552  14.4978
    16.3574  17.3828  17.5237  17.7703  17.8287  18.9225  19.0125  19.7013
    19.7719  20.8280  20.9950  21.5428  22.8433  22.9882  23.4204  24.3969
    24.9548  25.2409  25.6670  25.9627  26.1893  26.6331  26.6994  26.7253
    26.8707  27.2559  28.8091  29.4760  30.0548  30.4040  30.8799  31.0549
    31.2553  31.4131  32.0315  32.7387  33.1349  33.3627

          k = 0.4620 0.0000 0.0000 (  6109 PWs)   bands (ev):

   -13.6368 -13.5925 -13.3451 -13.2751  -1.9663  -1.6562  -1.5747  -1.2429
     0.4805   0.5488   0.7393   0.8092   0.9012   1.4054   1.6036   2.2642
     4.6421   5.0651   7.3310   7.8777   9.1586   9.6492  11.0545  11.6941
    11.9398  12.1378  12.7867  13.1965  13.2615  13.5297  14.0291  14.5294
    16.4305  17.4276  17.4598  17.7626  17.8350  18.9197  18.9798  19.6276
    19.7851  20.8069  20.8653  21.5771  22.8537  23.0054  23.2993  24.3591
    24.9572  25.1050  25.7368  25.9362  26.2689  26.6736  26.7106  26.7258
    26.9099  27.3934  28.7805  29.3575  29.7480  30.4940  30.8573  30.8618
    30.9758  31.4930  31.9280  32.3381  32.8182  33.3866

          k = 0.4428 0.0000 0.0000 (  6095 PWs)   bands (ev):

   -13.6577 -13.6122 -13.3629 -13.2923  -1.9024  -1.5940  -1.5024  -1.1743
     0.4981   0.5656   0.6467   0.8251   0.9166   1.3644   1.5560   2.2635
     4.6174   5.0370   7.4830   8.0429   9.0883   9.6312  11.0027  11.6656
    11.9252  12.1291  12.8607  13.2268  13.3159  13.5589  14.0115  14.5631
    16.5153  17.3832  17.4743  17.6840  17.9110  18.8150  19.0524  19.5609
    19.8067  20.6055  20.9006  21.6040  22.8591  23.0139  23.1820  24.3639
    24.9421  24.9736  25.8077  25.8783  26.2863  26.6193  26.7229  26.8270
    26.9654  27.5281  28.7316  29.1938  29.4535  30.5688  30.6208  30.6733
    30.8480  31.5927  31.8484  31.9297  32.4857  33.4215

          k = 0.4235 0.0000 0.0000 (  6095 PWs)   bands (ev):

   -13.6809 -13.6342 -13.3828 -13.3114  -1.8308  -1.5236  -1.4200  -1.0963
     0.5180   0.5507   0.5845   0.8431   0.9339   1.3167   1.5048   2.2608
     4.5926   5.0037   7.6512   8.2235   9.0001   9.6036  10.9440  11.6476
    11.9015  12.1315  12.9382  13.2605  13.3796  13.5914  14.0101  14.5979
    16.6080  17.2939  17.5227  17.5936  17.9989  18.7008  19.1410  19.5050
    19.8379  20.3967  20.9327  21.6150  22.8705  23.0107  23.0734  24.4045
    24.8453  24.9006  25.7851  25.8780  26.2684  26.5656  26.6938  26.9466
    27.0403  27.6505  28.6323  28.9823  29.1997  30.3584  30.3625  30.6185
    30.8401  31.5447  31.7077  31.7971  32.1326  33.3762

          k = 0.4043 0.0000 0.0000 (  6097 PWs)   bands (ev):

   -13.7062 -13.6581 -13.4045 -13.3324  -1.7522  -1.4456  -1.3281  -1.0093
     0.4533   0.5399   0.6055   0.8630   0.9530   1.2639   1.4509   2.2558
     4.5660   4.9673   7.8316   8.4173   8.8940   9.5629  10.8816  11.6429
    11.8640  12.1479  13.0190  13.2970  13.4537  13.6267  14.0320  14.6328
    16.7036  17.1925  17.4922  17.5740  18.0993  18.5797  19.2455  19.4626
    19.8797  20.1854  20.9599  21.6031  22.9006  22.9773  22.9940  24.4700
    24.7176  24.8259  25.6557  25.9484  26.2311  26.5143  26.6444  27.0409
    27.1322  27.7534  28.4491  28.7273  29.0107  30.0397  30.1038  30.6351
    30.8378  31.2069  31.7700  31.7743  31.8326  33.3175

          k = 0.3850 0.0000 0.0000 (  6111 PWs)   bands (ev):

   -13.7333 -13.6838 -13.4278 -13.3548  -1.6678  -1.3608  -1.2272  -0.9138
     0.3564   0.5638   0.6282   0.8845   0.9738   1.2077   1.3953   2.2485
     4.5354   4.9300   8.0195   8.6222   8.7707   9.5063  10.8199  11.6537
    11.8090  12.1800  13.1029  13.3356  13.5405  13.6640  14.0812  14.6668
    16.7963  17.0798  17.3811  17.6313  18.2133  18.4547  19.3634  19.4366
    19.9274  19.9813  20.9793  21.5662  22.8958  22.9506  22.9694  24.5488
    24.5868  24.7163  25.4922  26.0197  26.1780  26.4660  26.5829  27.0899
    27.2308  27.8309  28.1983  28.4398  28.8587  29.7240  29.8687  30.6137
    30.8387  30.9340  31.4183  31.7747  31.9615  33.1071

          k = 0.3658 0.0000 0.0000 (  6107 PWs)   bands (ev):

   -13.7618 -13.7107 -13.4524 -13.3784  -1.5788  -1.2699  -1.1180  -0.8103
     0.2619   0.5894   0.6526   0.9076   0.9960   1.1501   1.3385   2.2389
     4.4985   4.8939   8.2092   8.6310   8.8364   9.4317  10.7644  11.6811
    11.7357  12.2287  13.1901  13.3754  13.6428  13.7026  14.1585  14.6996
    16.8800  16.9573  17.2618  17.6985  18.3288  18.3417  19.4207  19.4995
    19.7673  20.0019  20.9871  21.5087  22.8306  22.9122  23.0450  24.4485
    24.5765  24.6305  25.2985  26.0874  26.1077  26.4209  26.5179  27.0782
    27.3088  27.8783  27.9313  28.1355  28.6965  29.4158  29.6814  30.5536
    30.7300  30.8394  31.0977  31.7954  32.0889  32.9073

          k = 0.3465 0.0000 0.0000 (  6127 PWs)   bands (ev):

   -13.7914 -13.7387 -13.4781 -13.4030  -1.4870  -1.1743  -1.0011  -0.6996
     0.1721   0.6165   0.6784   0.9318   1.0195   1.0929   1.2812   2.2271
     4.4535   4.8606   8.3935   8.4779   9.0566   9.3387  10.7218  11.6443
    11.7273  12.2936  13.2810  13.4156  13.7416  13.7632  14.2618  14.7309
    16.8267  16.9499  17.1358  17.7795  18.2050  18.4854  19.4257  19.5711
    19.6384  20.0785  20.9782  21.4395  22.7822  22.8473  23.1528  24.2984
    24.4181  24.7053  25.0797  26.0015  26.1553  26.3786  26.4580  26.9965
    27.2854  27.7279  27.8371  27.8917  28.5147  29.1174  29.5604  30.4584
    30.5517  30.8362  30.8605  31.8261  32.2103  32.7270

          k = 0.3273 0.0000 0.0000 (  6135 PWs)   bands (ev):

   -13.8217 -13.7674 -13.5044 -13.4283  -1.3941  -1.0757  -0.8772  -0.5823
     0.0895   0.6448   0.7053   0.9572   1.0379   1.0439   1.2242   2.2134
     4.3991   4.8310   8.3112   8.5656   9.2269   9.2806  10.7004  11.5434
    11.7885  12.3738  13.3761  13.4554  13.7802  13.9029  14.3878  14.7604
    16.6899  17.0040  17.0048  17.8759  18.0864  18.6445  19.3852  19.4437
    19.7811  20.1673  20.9469  21.3698  22.7507  22.7618  23.2758  24.1331
    24.2559  24.7655  24.8417  25.8582  26.2045  26.3381  26.4101  26.8377
    27.0695  27.5794  27.6554  27.8686  28.3396  28.8349  29.5098  30.3272
    30.3357  30.7656  30.8258  31.8558  32.3222  32.5687

          k = 0.3080 0.0000 0.0000 (  6139 PWs)   bands (ev):

   -13.8523 -13.7964 -13.5312 -13.4539  -1.3024  -0.9768  -0.7472  -0.4592
     0.0176   0.6740   0.7331   0.9833   0.9872   1.0692   1.1681   2.1978
     4.3350   4.8049   8.1351   8.7133   9.1007   9.5011  10.7090  11.4404
    11.8642  12.4682  13.4760  13.4936  13.8172  14.0609  14.5334  14.7887
    16.5489  16.8705  17.0440  17.9761  17.9861  18.8187  19.2124  19.4736
    19.9184  20.2675  20.8883  21.3121  22.6503  22.7356  23.4050  23.9502
    24.1087  24.5899  24.8024  25.6715  26.2253  26.2987  26.3793  26.5930
    26.7558  27.4078  27.5805  27.8079  28.2096  28.5814  29.5197  30.0849
    30.1950  30.7609  30.8054  31.8722  32.4076  32.4470

          k = 0.2888 0.0000 0.0000 (  6147 PWs)   bands (ev):

   -13.8830 -13.8254 -13.5581 -13.4796  -1.2143  -0.8818  -0.6120  -0.3314
    -0.0383   0.7038   0.7615   0.9424   1.0099   1.0949   1.1133   2.1806
     4.2618   4.7815   7.9508   8.8277   8.9607   9.7118  10.7550  11.3495
    11.9511  12.5755  13.5294  13.5814  13.8517  14.2351  14.6956  14.8164
    16.4060  16.7346  17.0741  17.8769  18.1061  19.0069  19.0548  19.5128
    20.0389  20.3785  20.7996  21.2805  22.5061  22.7360  23.5293  23.7494
    23.9940  24.3298  24.8022  25.4615  26.1836  26.2587  26.2774  26.3684
    26.4329  27.3316  27.4323  27.7103  28.1188  28.3768  29.5748  29.8603
    30.0464  30.7732  30.7875  31.8629  32.3059  32.5193

          k = 0.2695 0.0000 0.0000 (  6139 PWs)   bands (ev):

   -13.9134 -13.8542 -13.5848 -13.5051  -1.1331  -0.7970  -0.4725  -0.2003
    -0.0701   0.7340   0.7902   0.9056   1.0367   1.0606   1.1209   2.1619
     4.1801   4.7599   7.7606   8.8091   8.9039   9.8977  10.8394  11.2938
    12.0459  12.6943  13.5617  13.6931  13.8826  14.4214  14.8356  14.8812
    16.2630  16.5988  17.0997  17.7913  18.2301  18.9139  19.2067  19.5577
    20.1299  20.4999  20.6820  21.2892  22.3261  22.7507  23.5317  23.6317
    23.9225  24.0659  24.7413  25.2742  25.9248  25.9625  26.2163  26.2237
    26.3786  27.2485  27.3281  27.5782  27.9996  28.2381  29.6533  29.6717
    29.8979  30.7279  30.8174  31.8170  32.2007  32.5995

          k = 0.2503 0.0000 0.0000 (  6139 PWs)   bands (ev):

   -13.9431 -13.8824 -13.6110 -13.5302  -1.0626  -0.7302  -0.3298  -0.0827
    -0.0533   0.7642   0.8188   0.8782   1.0107   1.0635   1.1468   2.1420
     4.0910   4.7389   7.5664   8.6510   8.9397  10.0343  10.9551  11.3072
    12.1447  12.8235  13.5898  13.8113  13.9090  14.6145  14.8658  15.0708
    16.1220  16.4648  17.1260  17.7217  18.3508  18.7912  19.4136  19.6039
    20.1849  20.5416  20.6311  21.3466  22.1152  22.7783  23.2999  23.6813
    23.8021  23.8917  24.6177  25.1409  25.5806  25.6196  26.0621  26.1693
    26.4095  27.0814  27.3734  27.4164  27.8343  28.1287  29.4991  29.7556
    29.7684  30.6686  30.8398  31.7272  32.1073  32.6708

          k = 0.2310 0.0000 0.0000 (  6137 PWs)   bands (ev):

   -13.9719 -13.9097 -13.6365 -13.5545  -1.0072  -0.6855  -0.1852  -0.0351
     0.0736   0.7940   0.8471   0.8618   0.9644   1.0898   1.1724   2.1210
     3.9953   4.7178   7.3704   8.4881   8.9425  10.0958  11.1007  11.4132
    12.2441  12.9616  13.6130  13.9302  13.9363  14.8070  14.8936  15.2793
    15.9846  16.3342  17.1582  17.6698  18.4587  18.6873  19.6148  19.6474
    20.2134  20.3909  20.7715  21.4483  21.8859  22.8167  23.0577  23.5415
    23.6276  23.8844  24.5059  24.9791  25.2749  25.3320  25.8429  26.1156
    26.4595  26.9510  27.2314  27.4515  27.6475  27.9953  29.3694  29.6229
    29.8875  30.5949  30.8549  31.5902  32.0239  32.6734

          k = 0.2118 0.0000 0.0000 (  6143 PWs)   bands (ev):

   -13.9995 -13.9359 -13.6610 -13.5778  -0.9715  -0.6582  -0.0401   0.0406
     0.2080   0.8231   0.8575   0.8748   0.9229   1.1155   1.1973   2.0990
     3.8939   4.6961   7.1747   8.3234   8.9207  10.0810  11.2869  11.5952
    12.3406  13.1071  13.6308  13.9457  14.0673  14.9195  14.9942  15.5043
    15.8525  16.2084  17.2006  17.6368  18.5397  18.6027  19.6687  19.7935
    20.2355  20.2631  20.9205  21.5774  21.6566  22.8033  22.8700  23.2866
    23.4498  23.8652  24.4508  24.7133  24.9738  25.2499  25.5728  26.0523
    26.5267  26.8378  27.0311  27.4553  27.5529  27.8239  29.2756  29.5018
    30.0130  30.5072  30.8638  31.4073  31.9490  32.6752

          k = 0.1925 0.0000 0.0000 (  6153 PWs)   bands (ev):

   -14.0256 -13.9607 -13.6842 -13.6000  -0.9574  -0.6385   0.1040   0.1423
     0.3387   0.8512   0.8655   0.8886   0.9014   1.1402   1.2214   2.0762
     3.7875   4.6735   6.9814   8.1597   8.8827  10.0149  11.5116  11.8223
    12.4318  13.2580  13.6431  13.9555  14.2030  14.9515  15.1611  15.7273
    15.7459  16.0889  17.2567  17.6231  18.5371  18.5745  19.6669  19.8876
    20.1380  20.3556  21.0775  21.4428  21.7182  22.5551  22.9204  23.0412
    23.1978  23.7757  24.2795  24.5806  24.7630  25.2451  25.2780  25.9764
    26.6079  26.6986  26.8253  27.2806  27.6255  27.6723  29.2154  29.3929
    30.1380  30.4060  30.8610  31.1842  31.8815  32.4915

          k = 0.1733 0.0000 0.0000 (  6155 PWs)   bands (ev):

   -14.0499 -13.9838 -13.7059 -13.6206  -0.9622  -0.6206   0.2450   0.2604
     0.4600   0.8640   0.8778   0.8878   0.9268   1.1635   1.2441   2.0525
     3.6772   4.6499   6.7930   8.0000   8.8354   9.9234  11.7623  12.0743
    12.5156  13.4114  13.6500  13.9599  14.3410  14.9873  15.3047  15.6101
    15.9769  16.0028  17.3287  17.6283  18.4896  18.5433  19.6270  19.8968
    20.0853  20.5341  21.2415  21.2728  21.8415  22.3062  22.7983  22.9299
    22.9857  23.5728  23.9832  24.6031  24.6608  24.9938  25.2718  25.8837
    26.4991  26.6142  26.7106  27.1205  27.4543  27.7964  29.1823  29.2966
    30.2510  30.2926  30.8367  30.9347  31.8208  32.2797

          k = 0.1540 0.0000 0.0000 (  6151 PWs)   bands (ev):

   -14.0723 -14.0051 -13.7259 -13.6397  -0.9797  -0.6041   0.3799   0.3875
     0.5602   0.8625   0.9028   0.9203   0.9504   1.1853   1.2654   2.0282
     3.5642   4.6257   6.6118   7.8468   8.7839   9.8229  12.0275  12.3396
    12.5909  13.5639  13.6522  13.9595  14.4778  15.0295  15.4192  15.5022
    15.8736  16.2714  17.4155  17.6513  18.4412  18.4587  19.5447  19.8667
    20.0912  20.7387  21.1628  21.4115  21.9215  22.0638  22.5731  22.6878
    23.0472  23.2845  23.7073  24.5245  24.6424  24.8370  25.3189  25.7703
    26.2471  26.4284  26.8121  26.9274  27.3627  27.9280  29.1688  29.2127
    30.1690  30.3140  30.6965  30.7889  31.7664  32.0616

          k = 0.1348 0.0000 0.0000 (  6151 PWs)   bands (ev):

   -14.0926 -14.0243 -13.7441 -13.6569  -1.0038  -0.5904   0.5080   0.5140
     0.6233   0.8974   0.9257   0.9645   0.9722   1.2053   1.2849   2.0034
     3.4500   4.6013   6.4406   7.7030   8.7322   9.7230  12.2989  12.6102
    12.6571  13.6503  13.7110  13.9552  14.6088  15.0805  15.4046  15.5021
    15.7800  16.5461  17.5101  17.6900  18.2887  18.4421  19.4178  19.8236
    20.1496  20.9264  21.1197  21.5860  21.8324  21.9342  22.3611  22.4999
    22.9585  23.1081  23.4907  24.2570  24.6777  24.8557  25.3804  25.6348
    25.9740  26.2613  26.7003  26.9246  27.3464  28.0602  29.1409  29.1690
    30.0379  30.1956  30.6102  30.7121  31.7181  31.8481

          k = 0.1155 0.0000 0.0000 (  6131 PWs)   bands (ev):

   -14.1105 -14.0413 -13.7601 -13.6722  -1.0297  -0.5802   0.6048   0.6339
     0.6708   0.9463   0.9650   0.9917   1.0214   1.2231   1.3024   1.9781
     3.3365   4.5773   6.2822   7.5712   8.6830   9.6294  12.5696  12.7139
    12.8795  13.6454  13.8479  13.9483  14.7287  15.1423  15.3182  15.5528
    15.6971  16.8179  17.5905  17.7414  18.1307  18.4369  19.2553  19.7776
    20.2468  21.0498  21.1346  21.6159  21.7635  21.9107  22.1660  22.3573
    22.6224  23.1632  23.3557  23.9655  24.7098  24.9037  25.4502  25.4815
    25.7138  26.1196  26.4724  27.0417  27.3684  28.1878  29.0809  29.1798
    29.9028  29.9329  30.6090  30.6416  31.6602  31.6758

          k = 0.0963 0.0000 0.0000 (  6133 PWs)   bands (ev):

   -14.1259 -14.0560 -13.7739 -13.6854  -1.0547  -0.5735   0.6204   0.7464
     0.7649   0.9642   1.0086   1.0381   1.0939   1.2387   1.3176   1.9528
     3.2265   4.5546   6.1398   7.4540   8.6384   9.5458  12.7614  12.8326
    13.1402  13.6386  13.9399  13.9697  14.8334  15.2144  15.2438  15.5730
    15.6256  17.0669  17.6056  17.8015  18.0465  18.4397  19.0763  19.7334
    20.3668  21.0631  21.1898  21.4199  21.9285  21.9352  21.9964  22.2336
    22.2918  23.2074  23.2963  23.6820  24.7419  24.9080  25.3218  25.5035
    25.5294  26.0016  26.2657  27.1592  27.4077  28.3050  29.0319  29.2003
    29.6549  29.7682  30.5001  30.6447  31.5251  31.6395

          k = 0.0770 0.0000 0.0000 (  6141 PWs)   bands (ev):

   -14.1387 -14.0681 -13.7854 -13.6963  -1.0769  -0.5696   0.6142   0.8431
     0.8599   0.9792   1.0229   1.1059   1.1740   1.2516   1.3303   1.9280
     3.1237   4.5341   6.0168   7.3539   8.6000   9.4747  12.8000  13.0790
    13.3842  13.6311  13.9311  14.0720  14.9213  15.1821  15.2917  15.5662
    15.5662  17.2170  17.5879  17.8655  18.0813  18.4468  18.9003  19.6935
    20.4966  20.9818  21.2489  21.2722  21.8364  21.9351  21.9776  22.1174
    22.1966  23.2352  23.2775  23.4175  24.7766  24.8211  25.1696  25.4052
    25.5935  25.9042  26.0955  27.2723  27.4524  28.4046  28.9933  29.2301
    29.4018  29.6398  30.3812  30.5992  31.4585  31.6094

          k = 0.0578 0.0000 0.0000 (  6145 PWs)   bands (ev):

   -14.1488 -14.0777 -13.7945 -13.7049  -1.0950  -0.5676   0.6052   0.9186
     0.9399   0.9912   1.0342   1.1702   1.2476   1.2619   1.3404   1.9051
     3.0330   4.5167   5.9165   7.2733   8.5691   9.4178  12.8297  13.2981
    13.6005  13.6240  13.9231  14.1520  14.9925  15.1335  15.3655  15.5194
    15.5389  17.1580  17.7116  17.9274  18.1667  18.4546  18.7427  19.6599
    20.6267  20.8701  21.1081  21.3671  21.6901  21.7129  21.8426  22.2808
    22.3052  23.1809  23.2420  23.2669  24.6728  24.8139  25.0384  25.3727
    25.6548  25.8259  25.9734  27.3743  27.4948  28.4778  28.9643  29.1873
    29.2772  29.5249  30.2633  30.5178  31.4456  31.5857

          k = 0.0385 0.0000 0.0000 (  6137 PWs)   bands (ev):

   -14.1560 -14.0846 -13.8010 -13.7111  -1.1084  -0.5668   0.5976   0.9706
     0.9998   1.0009   1.0424   1.2263   1.2694   1.3061   1.3477   1.8859
     2.9605   4.5036   5.8422   7.2142   8.5464   9.3764  12.8507  13.4749
    13.6181  13.7750  13.9167  14.2086  15.0461  15.0985  15.4261  15.4857
    15.5014  17.0312  17.8787  17.9800  18.2527  18.4606  18.6141  19.6341
    20.7512  20.7717  21.0027  21.4177  21.4840  21.6207  21.7424  22.4242
    22.4418  22.9868  23.2282  23.2477  24.5313  24.8483  24.9386  25.3552
    25.7033  25.7675  25.9021  27.4573  27.5290  28.5161  28.9440  29.0472
    29.3196  29.4322  30.1575  30.4339  31.4550  31.5686

          k = 0.0193 0.0000 0.0000 (  6113 PWs)   bands (ev):

   -14.1604 -14.0888 -13.8050 -13.7148  -1.1166  -0.5666   0.5926   1.0006
     1.0051   1.0394   1.0474   1.2651   1.2739   1.3440   1.3522   1.8727
     2.9132   4.4953   5.7964   7.1781   8.5326   9.3512  12.8633  13.5921
    13.6143  13.8906  13.9126  14.2422  15.0774  15.0800  15.4654  15.4655
    15.4687  16.9343  18.0028  18.0159  18.3177  18.4639  18.5231  19.6178
    20.7058  20.8678  20.9374  21.2350  21.5409  21.5636  21.6749  22.5290
    22.5473  22.8537  23.2041  23.2238  24.4346  24.8732  24.8770  25.3388
    25.7310  25.7346  25.8704  27.5124  27.5510  28.5226  28.9321  28.9743
    29.3584  29.3712  30.0801  30.3741  31.4635  31.5583

          k = 0.0000 0.0000 0.0000 (  6077 PWs)   bands (ev):

   -14.1619 -14.0901 -13.8063 -13.7161  -1.1194  -0.5666   0.5908   1.0069
     1.0104   1.0491   1.0526   1.2755   1.2790   1.3538   1.3572   1.8680
     2.8966   4.4926   5.7809   7.1659   8.5280   9.3428  12.8675  13.6130
    13.6334  13.9112  13.9315  14.2533  15.0704  15.0917  15.4549  15.4586
    15.4798  16.8988  18.0287  18.0493  18.3445  18.4649  18.4863  19.6122
    20.6831  20.9152  20.9399  21.1345  21.5443  21.5684  21.6513  22.5690
    22.5878  22.8053  23.1914  23.2119  24.4005  24.8562  24.8824  25.3315
    25.7186  25.7454  25.8621  27.5318  27.5586  28.5199  28.9282  28.9542
    29.3498  29.3745  30.0508  30.3526  31.4655  31.5548

     Writing all to output data dir ./work/Al2O2.save/
 
     init_run     :      0.18s CPU      0.20s WALL (       1 calls)
     electrons    :    160.69s CPU    203.93s WALL (       1 calls)

     Called by init_run:
     wfcinit      :      0.00s CPU      0.00s WALL (       1 calls)
     potinit      :      0.08s CPU      0.09s WALL (       1 calls)
     hinit0       :      0.07s CPU      0.08s WALL (       1 calls)

     Called by electrons:
     c_bands      :    160.69s CPU    203.92s WALL (       1 calls)
     v_of_rho     :      0.00s CPU      0.00s WALL (       1 calls)
     newd         :      0.02s CPU      0.02s WALL (       1 calls)
     PAW_pot      :      0.07s CPU      0.08s WALL (       1 calls)

     Called by c_bands:
     init_us_2    :      0.02s CPU      0.03s WALL (      91 calls)
     init_us_2:cp :      0.02s CPU      0.03s WALL (      91 calls)
     cegterg      :    157.69s CPU    199.61s WALL (     378 calls)

     Called by *egterg:
     cdiaghg      :     32.48s CPU     33.30s WALL (    6879 calls)
     h_psi        :     79.07s CPU    118.97s WALL (    7257 calls)
     s_psi        :      5.71s CPU      6.10s WALL (    7257 calls)
     g_psi        :      0.20s CPU      0.21s WALL (    6788 calls)

     Called by h_psi:
     h_psi:calbec :      6.09s CPU      8.23s WALL (    7257 calls)
     vloc_psi     :     66.28s CPU    103.09s WALL (    7257 calls)
     add_vuspsi   :      6.25s CPU      7.18s WALL (    7257 calls)

     General routines
     calbec       :      6.08s CPU      8.22s WALL (    7257 calls)
     fft          :      0.00s CPU      0.00s WALL (      12 calls)
     fftw         :     63.80s CPU     99.39s WALL (  446058 calls)
     davcio       :      0.04s CPU      0.05s WALL (     182 calls)
 
     Parallel routines
 
     PWSCF        :   2m41.79s CPU   3m26.08s WALL

 
   This run was terminated on:  15:43:23  17Jun2023            

=------------------------------------------------------------------------------=
   JOB DONE.
=------------------------------------------------------------------------------=
