
     Program BANDS v.7.1 starts on 19Jun2023 at 12:48: 2 

     This program is part of the open-source Quantum ESPRESSO suite
     for quantum simulation of materials; please cite
         "P. Giannozzi et al., J. Phys.:Condens. Matter 21 395502 (2009);
         "P. Giannozzi et al., J. Phys.:Condens. Matter 29 465901 (2017);
         "P. Giannozzi et al., J. Chem. Phys. 152 154105 (2020);
          URL http://www.quantum-espresso.org", 
     in publications or presentations arising from this work. More details at
     http://www.quantum-espresso.org/quote

     Parallel version (MPI), running on    16 processors

     MPI processes distributed on     1 nodes
     R & G space division:  proc/nbgrp/npool/nimage =      16
     47317 MiB available memory on the printing compute node when the environment starts
 

     Reading xml data from directory:

     ./work/Al2O2.save/
     Message from routine volume:
     axis vectors are left-handed
     file Al.pbe-n-kjpaw_psl.1.0.0.UPF: wavefunction(s)  3S 3P renormalized
     file O.pbe-n-kjpaw_psl.1.0.0.UPF: wavefunction(s)  2S 2P renormalized

     IMPORTANT: XC functional enforced from input :
     Exchange-correlation= VDW-DF2-B86R
                           (   1   4  26   0   2   0   0)
     Any further DFT definition will be discarded
     Please, verify this is what you really want

 
     Parallelization info
     --------------------
     sticks:   dense  smooth     PW     G-vecs:    dense   smooth      PW
     Min          39      39     11                 2489     2489     395
     Max          40      40     12                 2493     2493     404
     Sum         625     625    187                39849    39849    6439
 
     Using Slab Decomposition
 

     Check: negative core charge=   -0.000006


     %%%%%%%%%%%%%%%%%%%%%%%%%%%%%%%%%%%%%%%%%%%%%%%%%%%%%%%%%%%%%%%%%%%%%%%%
     %                                                                      %
     % You are using vdW-DF, which was implemented by the Thonhauser group. %
     % Please cite the following two papers that made this development      %
     % possible and the two reviews that describe the various versions:     %
     %                                                                      %
     %   T. Thonhauser et al., PRL 115, 136402 (2015).                      %
     %   T. Thonhauser et al., PRB 76, 125112 (2007).                       %
     %   K. Berland et al., Rep. Prog. Phys. 78, 066501 (2015).             %
     %   D.C. Langreth et al., J. Phys.: Condens. Matter 21, 084203 (2009). %
     %                                                                      %
     % If you are calculating stress with vdW-DF, please also cite:         %
     %                                                                      %
     %   R. Sabatini et al., J. Phys.: Condens. Matter 24, 424209 (2012).   %
     %                                                                      %
     %%%%%%%%%%%%%%%%%%%%%%%%%%%%%%%%%%%%%%%%%%%%%%%%%%%%%%%%%%%%%%%%%%%%%%%%

     %%%%%%%%%%%%%%%%%%%%%%%%%%%%%%%%%%%%%%%%%%%%%%%%%%%%%%%%%%%%%%%%%%%%%%%%
     %                                                                      %
     %  vdW-DF NEWS:                                                        %
     %                                                                      %
     %  * vdW-DF3 is now available. DOI: 10.1021/acs.jctc.0c00471           %
     %    use with input_dft = 'vdW-DF3-opt1' or 'vdW-DF3-opt2'             %
     %                                                                      %
     %  * Unscreened and range-separated vdW-DF hybrid functionals          %
     %    DOI: 10.1063/1.4986522 and 10.1088/1361-648X/ac2ad2               %
     %    use with input_dft = 'vdW-DF-cx0' (etc) and 'vdW-DF-ahcx'         %
     %                                                                      %
     %%%%%%%%%%%%%%%%%%%%%%%%%%%%%%%%%%%%%%%%%%%%%%%%%%%%%%%%%%%%%%%%%%%%%%%%


     Reading collected, re-writing distributed wavefunctions
     high-symmetry point:  0.0000 0.0000 0.0000   x coordinate   0.0000
     high-symmetry point:  0.5775 0.3325 0.0000   x coordinate   0.6664
     high-symmetry point:  0.5775 0.0000 0.0000   x coordinate   0.9990
     high-symmetry point:  0.0000 0.0000 0.0000   x coordinate   1.5765

     Plottable bands (eV) written to file AC.bands.gnu
     Bands written to file AC.bands

 **************************************************************************

                    xk=(   0.00000,   0.00000,   0.00000  )

     point group C_s (m)    
     there are  2 classes
     the character table:

       E     s    
A'     1.00  1.00
A''    1.00 -1.00

     the symmetry operations in each class and the name of the first element:

     E        1
                                                                 
     s        2
                                                                 

     Band symmetry, C_s (m)     point group:

     e(  1 -  1) =    -13.45403  eV     1   --> A'             
     e(  2 -  2) =    -13.38898  eV     1   --> A'             
     e(  3 -  3) =    -11.58645  eV     1   --> A'             
     e(  4 -  4) =    -11.48071  eV     1   --> A'             
     e(  5 -  5) =      0.16846  eV     1   --> A'             
     e(  6 -  6) =      1.14879  eV     1   --> A'             
     e(  7 -  7) =      1.37807  eV     1   --> A'             
     e(  8 -  8) =      2.03168  eV     1   --> A''            
     e(  9 -  9) =      2.03461  eV     1   --> A'             
     e( 10 - 10) =      2.07492  eV     1   --> A''            
     e( 11 - 11) =      2.07772  eV     1   --> A'             
     e( 12 - 12) =      3.11729  eV     1   --> A'             
     e( 13 - 13) =      3.14017  eV     1   --> A''            
     e( 14 - 14) =      3.14393  eV     1   --> A'             
     e( 15 - 15) =      3.19867  eV     1   --> A''            
     e( 16 - 16) =      3.20244  eV     1   --> A'             
     e( 17 - 17) =      4.89002  eV     1   --> A'             
     e( 18 - 18) =      7.04680  eV     1   --> A'             
     e( 19 - 19) =      8.88530  eV     1   --> A'             
     e( 20 - 20) =     11.39647  eV     1   --> A'             
     e( 21 - 21) =     12.31380  eV     1   --> A'             
     e( 22 - 22) =     13.03590  eV     1   --> A'             
     e( 23 - 23) =     15.29776  eV     1   --> A''            
     e( 24 - 24) =     15.31828  eV     1   --> A'             
     e( 25 - 25) =     16.27931  eV     1   --> A''            
     e( 26 - 26) =     16.30044  eV     1   --> A'             
     e( 27 - 27) =     16.48931  eV     1   --> A''            
     e( 28 - 28) =     16.51026  eV     1   --> A'             
     e( 29 - 29) =     17.87571  eV     1   --> A'             
     e( 30 - 30) =     17.97257  eV     1   --> A''            
     e( 31 - 31) =     17.99493  eV     1   --> A'             
     e( 32 - 32) =     18.29606  eV     1   --> A'             
     e( 33 - 33) =     19.84914  eV     1   --> A'             
     e( 34 - 34) =     20.05282  eV     1   --> A''            
     e( 35 - 35) =     20.07178  eV     1   --> A'             
     e( 36 - 36) =     20.60310  eV     1   --> A'             
     e( 37 - 37) =     21.27251  eV     1   --> A''            
     e( 38 - 38) =     21.29132  eV     1   --> A'             
     e( 39 - 39) =     22.81602  eV     1   --> A''            
     e( 40 - 40) =     22.84201  eV     1   --> A'             
     e( 41 - 41) =     23.32451  eV     1   --> A'             
     e( 42 - 42) =     23.62972  eV     1   --> A'             
     e( 43 - 43) =     24.72947  eV     1   --> A''            
     e( 44 - 44) =     24.74416  eV     1   --> A'             
     e( 45 - 45) =     24.95821  eV     1   --> A''            
     e( 46 - 46) =     24.98491  eV     1   --> A'             
     e( 47 - 47) =     25.36483  eV     1   --> A'             
     e( 48 - 48) =     25.89128  eV     1   --> A'             
     e( 49 - 49) =     26.19406  eV     1   --> A'             
     e( 50 - 50) =     26.86194  eV     1   --> A''            
     e( 51 - 51) =     26.88663  eV     1   --> A'             
     e( 52 - 52) =     27.53258  eV     1   --> A''            
     e( 53 - 53) =     27.55394  eV     1   --> A'             
     e( 54 - 54) =     28.49058  eV     1   --> A'             
     e( 55 - 55) =     28.94749  eV     1   --> A''            
     e( 56 - 56) =     28.98065  eV     1   --> A'             
     e( 57 - 57) =     29.57644  eV     1   --> A'             
     e( 58 - 58) =     30.82143  eV     1   --> A'             
     e( 59 - 59) =     33.07229  eV     1   --> A''            
     e( 60 - 60) =     33.10059  eV     1   --> A'             
     e( 61 - 61) =     33.90091  eV     1   --> A'             
     e( 62 - 62) =     34.41730  eV     1   --> A'             
     e( 63 - 63) =     34.55826  eV     1   --> A''            
     e( 64 - 64) =     34.59822  eV     1   --> A'             
     e( 65 - 65) =     36.77521  eV     1   --> A''            
     e( 66 - 66) =     36.80764  eV     1   --> A'             
     e( 67 - 67) =     37.30365  eV     1   --> A''            
     e( 68 - 68) =     37.31096  eV     1   --> A'             
     e( 69 - 69) =     37.32705  eV     1   --> A'             
     e( 70 - 70) =     38.11664  eV     1   --> A''            

 **************************************************************************

 **************************************************************************

                    xk=(   0.01925,   0.01108,   0.00000  )

     point group C_1 (1)    
     there are  1 classes
     the character table:

       E    
A      1.00

     the symmetry operations in each class and the name of the first element:

     E        1
                                                                 

     Band symmetry, C_1 (1)     point group:

     e(  1 -  1) =    -13.45118  eV     1   --> A              
     e(  2 -  2) =    -13.38619  eV     1   --> A              
     e(  3 -  3) =    -11.58597  eV     1   --> A              
     e(  4 -  4) =    -11.48042  eV     1   --> A              
     e(  5 -  5) =      0.17268  eV     1   --> A              
     e(  6 -  6) =      1.12619  eV     1   --> A              
     e(  7 -  7) =      1.37776  eV     1   --> A              
     e(  8 -  8) =      2.02817  eV     1   --> A              
     e(  9 -  9) =      2.04822  eV     1   --> A              
     e( 10 - 10) =      2.05331  eV     1   --> A              
     e( 11 - 11) =      2.07164  eV     1   --> A              
     e( 12 - 12) =      3.11495  eV     1   --> A              
     e( 13 - 13) =      3.13869  eV     1   --> A              
     e( 14 - 14) =      3.14157  eV     1   --> A              
     e( 15 - 15) =      3.19098  eV     1   --> A              
     e( 16 - 16) =      3.20126  eV     1   --> A              
     e( 17 - 17) =      4.91671  eV     1   --> A              
     e( 18 - 18) =      7.04431  eV     1   --> A              
     e( 19 - 19) =      8.90369  eV     1   --> A              
     e( 20 - 20) =     11.40120  eV     1   --> A              
     e( 21 - 21) =     12.31319  eV     1   --> A              
     e( 22 - 22) =     13.04468  eV     1   --> A              
     e( 23 - 23) =     15.29243  eV     1   --> A              
     e( 24 - 24) =     15.31237  eV     1   --> A              
     e( 25 - 25) =     16.24453  eV     1   --> A              
     e( 26 - 26) =     16.28973  eV     1   --> A              
     e( 27 - 27) =     16.47309  eV     1   --> A              
     e( 28 - 28) =     16.50680  eV     1   --> A              
     e( 29 - 29) =     17.79741  eV     1   --> A              
     e( 30 - 30) =     17.98656  eV     1   --> A              
     e( 31 - 31) =     18.06060  eV     1   --> A              
     e( 32 - 32) =     18.30863  eV     1   --> A              
     e( 33 - 33) =     19.88100  eV     1   --> A              
     e( 34 - 34) =     20.03093  eV     1   --> A              
     e( 35 - 35) =     20.05465  eV     1   --> A              
     e( 36 - 36) =     20.59985  eV     1   --> A              
     e( 37 - 37) =     21.22122  eV     1   --> A              
     e( 38 - 38) =     21.27857  eV     1   --> A              
     e( 39 - 39) =     22.84868  eV     1   --> A              
     e( 40 - 40) =     22.87057  eV     1   --> A              
     e( 41 - 41) =     23.34643  eV     1   --> A              
     e( 42 - 42) =     23.69774  eV     1   --> A              
     e( 43 - 43) =     24.70009  eV     1   --> A              
     e( 44 - 44) =     24.71368  eV     1   --> A              
     e( 45 - 45) =     24.95225  eV     1   --> A              
     e( 46 - 46) =     24.98677  eV     1   --> A              
     e( 47 - 47) =     25.41006  eV     1   --> A              
     e( 48 - 48) =     25.91890  eV     1   --> A              
     e( 49 - 49) =     26.21740  eV     1   --> A              
     e( 50 - 50) =     26.85421  eV     1   --> A              
     e( 51 - 51) =     26.87725  eV     1   --> A              
     e( 52 - 52) =     27.54981  eV     1   --> A              
     e( 53 - 53) =     27.57866  eV     1   --> A              
     e( 54 - 54) =     28.52496  eV     1   --> A              
     e( 55 - 55) =     28.95045  eV     1   --> A              
     e( 56 - 56) =     28.97942  eV     1   --> A              
     e( 57 - 57) =     29.58538  eV     1   --> A              
     e( 58 - 58) =     30.84690  eV     1   --> A              
     e( 59 - 59) =     33.00748  eV     1   --> A              
     e( 60 - 60) =     33.07816  eV     1   --> A              
     e( 61 - 61) =     33.91955  eV     1   --> A              
     e( 62 - 62) =     34.50451  eV     1   --> A              
     e( 63 - 63) =     34.54963  eV     1   --> A              
     e( 64 - 64) =     34.58522  eV     1   --> A              
     e( 65 - 65) =     36.76442  eV     1   --> A              
     e( 66 - 66) =     36.79445  eV     1   --> A              
     e( 67 - 67) =     37.25937  eV     1   --> A              
     e( 68 - 68) =     37.28706  eV     1   --> A              
     e( 69 - 69) =     37.29740  eV     1   --> A              
     e( 70 - 70) =     38.06674  eV     1   --> A              

 **************************************************************************

 **************************************************************************

                    xk=(   0.03850,   0.02217,   0.00000  )

     Band symmetry, C_1 (1)     point group:

     e(  1 -  1) =    -13.44264  eV     1   --> A              
     e(  2 -  2) =    -13.37781  eV     1   --> A              
     e(  3 -  3) =    -11.58454  eV     1   --> A              
     e(  4 -  4) =    -11.47956  eV     1   --> A              
     e(  5 -  5) =      0.18528  eV     1   --> A              
     e(  6 -  6) =      1.06386  eV     1   --> A              
     e(  7 -  7) =      1.37662  eV     1   --> A              
     e(  8 -  8) =      1.96949  eV     1   --> A              
     e(  9 -  9) =      2.01539  eV     1   --> A              
     e( 10 - 10) =      2.05931  eV     1   --> A              
     e( 11 - 11) =      2.10621  eV     1   --> A              
     e( 12 - 12) =      3.03701  eV     1   --> A              
     e( 13 - 13) =      3.14258  eV     1   --> A              
     e( 14 - 14) =      3.16147  eV     1   --> A              
     e( 15 - 15) =      3.18029  eV     1   --> A              
     e( 16 - 16) =      3.22087  eV     1   --> A              
     e( 17 - 17) =      4.99161  eV     1   --> A              
     e( 18 - 18) =      7.03696  eV     1   --> A              
     e( 19 - 19) =      8.95814  eV     1   --> A              
     e( 20 - 20) =     11.41536  eV     1   --> A              
     e( 21 - 21) =     12.31086  eV     1   --> A              
     e( 22 - 22) =     13.07079  eV     1   --> A              
     e( 23 - 23) =     15.25304  eV     1   --> A              
     e( 24 - 24) =     15.31925  eV     1   --> A              
     e( 25 - 25) =     16.10959  eV     1   --> A              
     e( 26 - 26) =     16.29645  eV     1   --> A              
     e( 27 - 27) =     16.39155  eV     1   --> A              
     e( 28 - 28) =     16.53345  eV     1   --> A              
     e( 29 - 29) =     17.67544  eV     1   --> A              
     e( 30 - 30) =     18.01415  eV     1   --> A              
     e( 31 - 31) =     18.15941  eV     1   --> A              
     e( 32 - 32) =     18.34250  eV     1   --> A              
     e( 33 - 33) =     19.86990  eV     1   --> A              
     e( 34 - 34) =     19.95772  eV     1   --> A              
     e( 35 - 35) =     20.11011  eV     1   --> A              
     e( 36 - 36) =     20.59795  eV     1   --> A              
     e( 37 - 37) =     21.05305  eV     1   --> A              
     e( 38 - 38) =     21.27633  eV     1   --> A              
     e( 39 - 39) =     22.92951  eV     1   --> A              
     e( 40 - 40) =     22.97050  eV     1   --> A              
     e( 41 - 41) =     23.41108  eV     1   --> A              
     e( 42 - 42) =     23.87236  eV     1   --> A              
     e( 43 - 43) =     24.61549  eV     1   --> A              
     e( 44 - 44) =     24.62871  eV     1   --> A              
     e( 45 - 45) =     24.89521  eV     1   --> A              
     e( 46 - 46) =     25.03819  eV     1   --> A              
     e( 47 - 47) =     25.54232  eV     1   --> A              
     e( 48 - 48) =     25.99792  eV     1   --> A              
     e( 49 - 49) =     26.28781  eV     1   --> A              
     e( 50 - 50) =     26.82937  eV     1   --> A              
     e( 51 - 51) =     26.85044  eV     1   --> A              
     e( 52 - 52) =     27.56806  eV     1   --> A              
     e( 53 - 53) =     27.68394  eV     1   --> A              
     e( 54 - 54) =     28.62422  eV     1   --> A              
     e( 55 - 55) =     28.94648  eV     1   --> A              
     e( 56 - 56) =     28.98822  eV     1   --> A              
     e( 57 - 57) =     29.61254  eV     1   --> A              
     e( 58 - 58) =     30.91968  eV     1   --> A              
     e( 59 - 59) =     32.80353  eV     1   --> A              
     e( 60 - 60) =     33.06683  eV     1   --> A              
     e( 61 - 61) =     33.97583  eV     1   --> A              
     e( 62 - 62) =     34.51411  eV     1   --> A              
     e( 63 - 63) =     34.55124  eV     1   --> A              
     e( 64 - 64) =     34.72538  eV     1   --> A              
     e( 65 - 65) =     36.72899  eV     1   --> A              
     e( 66 - 66) =     36.75754  eV     1   --> A              
     e( 67 - 67) =     37.13784  eV     1   --> A              
     e( 68 - 68) =     37.19108  eV     1   --> A              
     e( 69 - 69) =     37.24946  eV     1   --> A              
     e( 70 - 70) =     37.97217  eV     1   --> A              

 **************************************************************************

 **************************************************************************

                    xk=(   0.05775,   0.03325,   0.00000  )

     Band symmetry, C_1 (1)     point group:

     e(  1 -  1) =    -13.42847  eV     1   --> A              
     e(  2 -  2) =    -13.36391  eV     1   --> A              
     e(  3 -  3) =    -11.58223  eV     1   --> A              
     e(  4 -  4) =    -11.47819  eV     1   --> A              
     e(  5 -  5) =      0.20611  eV     1   --> A              
     e(  6 -  6) =      0.97323  eV     1   --> A              
     e(  7 -  7) =      1.37391  eV     1   --> A              
     e(  8 -  8) =      1.85576  eV     1   --> A              
     e(  9 -  9) =      1.99284  eV     1   --> A              
     e( 10 - 10) =      2.03834  eV     1   --> A              
     e( 11 - 11) =      2.18165  eV     1   --> A              
     e( 12 - 12) =      2.92208  eV     1   --> A              
     e( 13 - 13) =      3.11624  eV     1   --> A              
     e( 14 - 14) =      3.14426  eV     1   --> A              
     e( 15 - 15) =      3.18689  eV     1   --> A              
     e( 16 - 16) =      3.29833  eV     1   --> A              
     e( 17 - 17) =      5.10289  eV     1   --> A              
     e( 18 - 18) =      7.02488  eV     1   --> A              
     e( 19 - 19) =      9.04651  eV     1   --> A              
     e( 20 - 20) =     11.43886  eV     1   --> A              
     e( 21 - 21) =     12.30537  eV     1   --> A              
     e( 22 - 22) =     13.11348  eV     1   --> A              
     e( 23 - 23) =     15.18814  eV     1   --> A              
     e( 24 - 24) =     15.33108  eV     1   --> A              
     e( 25 - 25) =     15.91129  eV     1   --> A              
     e( 26 - 26) =     16.26506  eV     1   --> A              
     e( 27 - 27) =     16.30535  eV     1   --> A              
     e( 28 - 28) =     16.57950  eV     1   --> A              
     e( 29 - 29) =     17.54588  eV     1   --> A              
     e( 30 - 30) =     18.05841  eV     1   --> A              
     e( 31 - 31) =     18.25359  eV     1   --> A              
     e( 32 - 32) =     18.38843  eV     1   --> A              
     e( 33 - 33) =     19.74774  eV     1   --> A              
     e( 34 - 34) =     19.82156  eV     1   --> A              
     e( 35 - 35) =     20.30597  eV     1   --> A              
     e( 36 - 36) =     20.60053  eV     1   --> A              
     e( 37 - 37) =     20.83727  eV     1   --> A              
     e( 38 - 38) =     21.27022  eV     1   --> A              
     e( 39 - 39) =     23.05610  eV     1   --> A              
     e( 40 - 40) =     23.13089  eV     1   --> A              
     e( 41 - 41) =     23.51516  eV     1   --> A              
     e( 42 - 42) =     24.09530  eV     1   --> A              
     e( 43 - 43) =     24.48671  eV     1   --> A              
     e( 44 - 44) =     24.50138  eV     1   --> A              
     e( 45 - 45) =     24.80746  eV     1   --> A              
     e( 46 - 46) =     25.13694  eV     1   --> A              
     e( 47 - 47) =     25.75252  eV     1   --> A              
     e( 48 - 48) =     26.12008  eV     1   --> A              
     e( 49 - 49) =     26.40630  eV     1   --> A              
     e( 50 - 50) =     26.78394  eV     1   --> A              
     e( 51 - 51) =     26.81168  eV     1   --> A              
     e( 52 - 52) =     27.59927  eV     1   --> A              
     e( 53 - 53) =     27.84974  eV     1   --> A              
     e( 54 - 54) =     28.77837  eV     1   --> A              
     e( 55 - 55) =     28.92751  eV     1   --> A              
     e( 56 - 56) =     29.01463  eV     1   --> A              
     e( 57 - 57) =     29.65885  eV     1   --> A              
     e( 58 - 58) =     31.02974  eV     1   --> A              
     e( 59 - 59) =     32.54255  eV     1   --> A              
     e( 60 - 60) =     33.05012  eV     1   --> A              
     e( 61 - 61) =     34.07079  eV     1   --> A              
     e( 62 - 62) =     34.44409  eV     1   --> A              
     e( 63 - 63) =     34.51351  eV     1   --> A              
     e( 64 - 64) =     35.00658  eV     1   --> A              
     e( 65 - 65) =     36.66487  eV     1   --> A              
     e( 66 - 66) =     36.69859  eV     1   --> A              
     e( 67 - 67) =     36.96207  eV     1   --> A              
     e( 68 - 68) =     37.07730  eV     1   --> A              
     e( 69 - 69) =     37.15963  eV     1   --> A              
     e( 70 - 70) =     37.92767  eV     1   --> A              

 **************************************************************************

 **************************************************************************

                    xk=(   0.07701,   0.04434,   0.00000  )

     Band symmetry, C_1 (1)     point group:

     e(  1 -  1) =    -13.40875  eV     1   --> A              
     e(  2 -  2) =    -13.34457  eV     1   --> A              
     e(  3 -  3) =    -11.57916  eV     1   --> A              
     e(  4 -  4) =    -11.47643  eV     1   --> A              
     e(  5 -  5) =      0.23496  eV     1   --> A              
     e(  6 -  6) =      0.86474  eV     1   --> A              
     e(  7 -  7) =      1.36837  eV     1   --> A              
     e(  8 -  8) =      1.72057  eV     1   --> A              
     e(  9 -  9) =      1.95837  eV     1   --> A              
     e( 10 - 10) =      2.00807  eV     1   --> A              
     e( 11 - 11) =      2.26959  eV     1   --> A              
     e( 12 - 12) =      2.78514  eV     1   --> A              
     e( 13 - 13) =      3.05958  eV     1   --> A              
     e( 14 - 14) =      3.14627  eV     1   --> A              
     e( 15 - 15) =      3.18433  eV     1   --> A              
     e( 16 - 16) =      3.39509  eV     1   --> A              
     e( 17 - 17) =      5.23813  eV     1   --> A              
     e( 18 - 18) =      7.00834  eV     1   --> A              
     e( 19 - 19) =      9.16558  eV     1   --> A              
     e( 20 - 20) =     11.47156  eV     1   --> A              
     e( 21 - 21) =     12.29445  eV     1   --> A              
     e( 22 - 22) =     13.17144  eV     1   --> A              
     e( 23 - 23) =     15.10875  eV     1   --> A              
     e( 24 - 24) =     15.32271  eV     1   --> A              
     e( 25 - 25) =     15.69415  eV     1   --> A              
     e( 26 - 26) =     16.10787  eV     1   --> A              
     e( 27 - 27) =     16.31051  eV     1   --> A              
     e( 28 - 28) =     16.64023  eV     1   --> A              
     e( 29 - 29) =     17.41605  eV     1   --> A              
     e( 30 - 30) =     18.11834  eV     1   --> A              
     e( 31 - 31) =     18.34008  eV     1   --> A              
     e( 32 - 32) =     18.43657  eV     1   --> A              
     e( 33 - 33) =     19.58833  eV     1   --> A              
     e( 34 - 34) =     19.63061  eV     1   --> A              
     e( 35 - 35) =     20.49985  eV     1   --> A              
     e( 36 - 36) =     20.55505  eV     1   --> A              
     e( 37 - 37) =     20.72830  eV     1   --> A              
     e( 38 - 38) =     21.26099  eV     1   --> A              
     e( 39 - 39) =     23.22964  eV     1   --> A              
     e( 40 - 40) =     23.32898  eV     1   --> A              
     e( 41 - 41) =     23.65278  eV     1   --> A              
     e( 42 - 42) =     24.31648  eV     1   --> A              
     e( 43 - 43) =     24.32033  eV     1   --> A              
     e( 44 - 44) =     24.35069  eV     1   --> A              
     e( 45 - 45) =     24.70639  eV     1   --> A              
     e( 46 - 46) =     25.28850  eV     1   --> A              
     e( 47 - 47) =     26.02870  eV     1   --> A              
     e( 48 - 48) =     26.27621  eV     1   --> A              
     e( 49 - 49) =     26.57404  eV     1   --> A              
     e( 50 - 50) =     26.72425  eV     1   --> A              
     e( 51 - 51) =     26.76384  eV     1   --> A              
     e( 52 - 52) =     27.64596  eV     1   --> A              
     e( 53 - 53) =     28.05942  eV     1   --> A              
     e( 54 - 54) =     28.90351  eV     1   --> A              
     e( 55 - 55) =     28.97475  eV     1   --> A              
     e( 56 - 56) =     29.04964  eV     1   --> A              
     e( 57 - 57) =     29.72541  eV     1   --> A              
     e( 58 - 58) =     31.16278  eV     1   --> A              
     e( 59 - 59) =     32.26080  eV     1   --> A              
     e( 60 - 60) =     33.02656  eV     1   --> A              
     e( 61 - 61) =     34.20578  eV     1   --> A              
     e( 62 - 62) =     34.34414  eV     1   --> A              
     e( 63 - 63) =     34.47001  eV     1   --> A              
     e( 64 - 64) =     35.31243  eV     1   --> A              
     e( 65 - 65) =     36.57569  eV     1   --> A              
     e( 66 - 66) =     36.60902  eV     1   --> A              
     e( 67 - 67) =     36.75530  eV     1   --> A              
     e( 68 - 68) =     36.96991  eV     1   --> A              
     e( 69 - 69) =     37.04523  eV     1   --> A              
     e( 70 - 70) =     37.94450  eV     1   --> A              

 **************************************************************************

 **************************************************************************

                    xk=(   0.09626,   0.05542,   0.00000  )

     Band symmetry, C_1 (1)     point group:

     e(  1 -  1) =    -13.38360  eV     1   --> A              
     e(  2 -  2) =    -13.31990  eV     1   --> A              
     e(  3 -  3) =    -11.57549  eV     1   --> A              
     e(  4 -  4) =    -11.47442  eV     1   --> A              
     e(  5 -  5) =      0.27148  eV     1   --> A              
     e(  6 -  6) =      0.74584  eV     1   --> A              
     e(  7 -  7) =      1.35804  eV     1   --> A              
     e(  8 -  8) =      1.57339  eV     1   --> A              
     e(  9 -  9) =      1.90853  eV     1   --> A              
     e( 10 - 10) =      1.96811  eV     1   --> A              
     e( 11 - 11) =      2.36333  eV     1   --> A              
     e( 12 - 12) =      2.64022  eV     1   --> A              
     e( 13 - 13) =      2.99765  eV     1   --> A              
     e( 14 - 14) =      3.14836  eV     1   --> A              
     e( 15 - 15) =      3.17920  eV     1   --> A              
     e( 16 - 16) =      3.49538  eV     1   --> A              
     e( 17 - 17) =      5.38763  eV     1   --> A              
     e( 18 - 18) =      6.98779  eV     1   --> A              
     e( 19 - 19) =      9.31153  eV     1   --> A              
     e( 20 - 20) =     11.51327  eV     1   --> A              
     e( 21 - 21) =     12.27531  eV     1   --> A              
     e( 22 - 22) =     13.24248  eV     1   --> A              
     e( 23 - 23) =     15.02290  eV     1   --> A              
     e( 24 - 24) =     15.20996  eV     1   --> A              
     e( 25 - 25) =     15.55915  eV     1   --> A              
     e( 26 - 26) =     15.93141  eV     1   --> A              
     e( 27 - 27) =     16.30728  eV     1   --> A              
     e( 28 - 28) =     16.70747  eV     1   --> A              
     e( 29 - 29) =     17.29565  eV     1   --> A              
     e( 30 - 30) =     18.19171  eV     1   --> A              
     e( 31 - 31) =     18.41872  eV     1   --> A              
     e( 32 - 32) =     18.47995  eV     1   --> A              
     e( 33 - 33) =     19.38968  eV     1   --> A              
     e( 34 - 34) =     19.42638  eV     1   --> A              
     e( 35 - 35) =     20.27413  eV     1   --> A              
     e( 36 - 36) =     20.77434  eV     1   --> A              
     e( 37 - 37) =     20.80527  eV     1   --> A              
     e( 38 - 38) =     21.26580  eV     1   --> A              
     e( 39 - 39) =     23.44455  eV     1   --> A              
     e( 40 - 40) =     23.54710  eV     1   --> A              
     e( 41 - 41) =     23.81502  eV     1   --> A              
     e( 42 - 42) =     24.12152  eV     1   --> A              
     e( 43 - 43) =     24.19282  eV     1   --> A              
     e( 44 - 44) =     24.50983  eV     1   --> A              
     e( 45 - 45) =     24.60898  eV     1   --> A              
     e( 46 - 46) =     25.49174  eV     1   --> A              
     e( 47 - 47) =     26.35853  eV     1   --> A              
     e( 48 - 48) =     26.45227  eV     1   --> A              
     e( 49 - 49) =     26.66622  eV     1   --> A              
     e( 50 - 50) =     26.71110  eV     1   --> A              
     e( 51 - 51) =     26.79163  eV     1   --> A              
     e( 52 - 52) =     27.70530  eV     1   --> A              
     e( 53 - 53) =     28.29847  eV     1   --> A              
     e( 54 - 54) =     28.88323  eV     1   --> A              
     e( 55 - 55) =     29.08846  eV     1   --> A              
     e( 56 - 56) =     29.20093  eV     1   --> A              
     e( 57 - 57) =     29.81271  eV     1   --> A              
     e( 58 - 58) =     31.30274  eV     1   --> A              
     e( 59 - 59) =     31.97448  eV     1   --> A              
     e( 60 - 60) =     32.99584  eV     1   --> A              
     e( 61 - 61) =     34.22281  eV     1   --> A              
     e( 62 - 62) =     34.38181  eV     1   --> A              
     e( 63 - 63) =     34.42039  eV     1   --> A              
     e( 64 - 64) =     35.61602  eV     1   --> A              
     e( 65 - 65) =     36.46175  eV     1   --> A              
     e( 66 - 66) =     36.48748  eV     1   --> A              
     e( 67 - 67) =     36.53567  eV     1   --> A              
     e( 68 - 68) =     36.88992  eV     1   --> A              
     e( 69 - 69) =     36.93630  eV     1   --> A              
     e( 70 - 70) =     38.00641  eV     1   --> A              

 **************************************************************************

 **************************************************************************

                    xk=(   0.11551,   0.06651,   0.00000  )

     Band symmetry, C_1 (1)     point group:

     e(  1 -  1) =    -13.35318  eV     1   --> A              
     e(  2 -  2) =    -13.29008  eV     1   --> A              
     e(  3 -  3) =    -11.57143  eV     1   --> A              
     e(  4 -  4) =    -11.47234  eV     1   --> A              
     e(  5 -  5) =      0.31513  eV     1   --> A              
     e(  6 -  6) =      0.62150  eV     1   --> A              
     e(  7 -  7) =      1.34012  eV     1   --> A              
     e(  8 -  8) =      1.42032  eV     1   --> A              
     e(  9 -  9) =      1.83849  eV     1   --> A              
     e( 10 - 10) =      1.91881  eV     1   --> A              
     e( 11 - 11) =      2.45833  eV     1   --> A              
     e( 12 - 12) =      2.49983  eV     1   --> A              
     e( 13 - 13) =      2.93661  eV     1   --> A              
     e( 14 - 14) =      3.15039  eV     1   --> A              
     e( 15 - 15) =      3.17185  eV     1   --> A              
     e( 16 - 16) =      3.59301  eV     1   --> A              
     e( 17 - 17) =      5.54461  eV     1   --> A              
     e( 18 - 18) =      6.96377  eV     1   --> A              
     e( 19 - 19) =      9.48023  eV     1   --> A              
     e( 20 - 20) =     11.56381  eV     1   --> A              
     e( 21 - 21) =     12.24504  eV     1   --> A              
     e( 22 - 22) =     13.32299  eV     1   --> A              
     e( 23 - 23) =     14.93651  eV     1   --> A              
     e( 24 - 24) =     14.96609  eV     1   --> A              
     e( 25 - 25) =     15.54570  eV     1   --> A              
     e( 26 - 26) =     15.74477  eV     1   --> A              
     e( 27 - 27) =     16.29189  eV     1   --> A              
     e( 28 - 28) =     16.75908  eV     1   --> A              
     e( 29 - 29) =     17.20770  eV     1   --> A              
     e( 30 - 30) =     18.27364  eV     1   --> A              
     e( 31 - 31) =     18.48980  eV     1   --> A              
     e( 32 - 32) =     18.51716  eV     1   --> A              
     e( 33 - 33) =     19.12543  eV     1   --> A              
     e( 34 - 34) =     19.26275  eV     1   --> A              
     e( 35 - 35) =     20.05745  eV     1   --> A              
     e( 36 - 36) =     20.85649  eV     1   --> A              
     e( 37 - 37) =     20.96490  eV     1   --> A              
     e( 38 - 38) =     21.35591  eV     1   --> A              
     e( 39 - 39) =     23.69315  eV     1   --> A              
     e( 40 - 40) =     23.76652  eV     1   --> A              
     e( 41 - 41) =     23.89975  eV     1   --> A              
     e( 42 - 42) =     23.98970  eV     1   --> A              
     e( 43 - 43) =     24.03621  eV     1   --> A              
     e( 44 - 44) =     24.53624  eV     1   --> A              
     e( 45 - 45) =     24.67432  eV     1   --> A              
     e( 46 - 46) =     25.73004  eV     1   --> A              
     e( 47 - 47) =     26.56658  eV     1   --> A              
     e( 48 - 48) =     26.63097  eV     1   --> A              
     e( 49 - 49) =     26.72157  eV     1   --> A              
     e( 50 - 50) =     26.73049  eV     1   --> A              
     e( 51 - 51) =     27.05811  eV     1   --> A              
     e( 52 - 52) =     27.77315  eV     1   --> A              
     e( 53 - 53) =     28.55270  eV     1   --> A              
     e( 54 - 54) =     28.87895  eV     1   --> A              
     e( 55 - 55) =     29.12823  eV     1   --> A              
     e( 56 - 56) =     29.44617  eV     1   --> A              
     e( 57 - 57) =     29.91913  eV     1   --> A              
     e( 58 - 58) =     31.43407  eV     1   --> A              
     e( 59 - 59) =     31.69173  eV     1   --> A              
     e( 60 - 60) =     32.95829  eV     1   --> A              
     e( 61 - 61) =     34.08814  eV     1   --> A              
     e( 62 - 62) =     34.36718  eV     1   --> A              
     e( 63 - 63) =     34.59806  eV     1   --> A              
     e( 64 - 64) =     35.88002  eV     1   --> A              
     e( 65 - 65) =     36.30553  eV     1   --> A              
     e( 66 - 66) =     36.31787  eV     1   --> A              
     e( 67 - 67) =     36.36689  eV     1   --> A              
     e( 68 - 68) =     36.84502  eV     1   --> A              
     e( 69 - 69) =     36.87273  eV     1   --> A              
     e( 70 - 70) =     38.09576  eV     1   --> A              

 **************************************************************************

 **************************************************************************

                    xk=(   0.13476,   0.07759,   0.00000  )

     Band symmetry, C_1 (1)     point group:

     e(  1 -  1) =    -13.31770  eV     1   --> A              
     e(  2 -  2) =    -13.25529  eV     1   --> A              
     e(  3 -  3) =    -11.56722  eV     1   --> A              
     e(  4 -  4) =    -11.47040  eV     1   --> A              
     e(  5 -  5) =      0.36512  eV     1   --> A              
     e(  6 -  6) =      0.49525  eV     1   --> A              
     e(  7 -  7) =      1.26556  eV     1   --> A              
     e(  8 -  8) =      1.31093  eV     1   --> A              
     e(  9 -  9) =      1.74356  eV     1   --> A              
     e( 10 - 10) =      1.86186  eV     1   --> A              
     e( 11 - 11) =      2.37414  eV     1   --> A              
     e( 12 - 12) =      2.55149  eV     1   --> A              
     e( 13 - 13) =      2.88211  eV     1   --> A              
     e( 14 - 14) =      3.15238  eV     1   --> A              
     e( 15 - 15) =      3.16222  eV     1   --> A              
     e( 16 - 16) =      3.68446  eV     1   --> A              
     e( 17 - 17) =      5.70456  eV     1   --> A              
     e( 18 - 18) =      6.93704  eV     1   --> A              
     e( 19 - 19) =      9.66761  eV     1   --> A              
     e( 20 - 20) =     11.62295  eV     1   --> A              
     e( 21 - 21) =     12.20114  eV     1   --> A              
     e( 22 - 22) =     13.40591  eV     1   --> A              
     e( 23 - 23) =     14.68565  eV     1   --> A              
     e( 24 - 24) =     14.85499  eV     1   --> A              
     e( 25 - 25) =     15.55495  eV     1   --> A              
     e( 26 - 26) =     15.56847  eV     1   --> A              
     e( 27 - 27) =     16.26178  eV     1   --> A              
     e( 28 - 28) =     16.75043  eV     1   --> A              
     e( 29 - 29) =     17.19714  eV     1   --> A              
     e( 30 - 30) =     18.35118  eV     1   --> A              
     e( 31 - 31) =     18.54995  eV     1   --> A              
     e( 32 - 32) =     18.56107  eV     1   --> A              
     e( 33 - 33) =     18.84044  eV     1   --> A              
     e( 34 - 34) =     19.11728  eV     1   --> A              
     e( 35 - 35) =     19.87758  eV     1   --> A              
     e( 36 - 36) =     20.95492  eV     1   --> A              
     e( 37 - 37) =     20.97779  eV     1   --> A              
     e( 38 - 38) =     21.57427  eV     1   --> A              
     e( 39 - 39) =     23.66276  eV     1   --> A              
     e( 40 - 40) =     23.88633  eV     1   --> A              
     e( 41 - 41) =     23.95136  eV     1   --> A              
     e( 42 - 42) =     23.96680  eV     1   --> A              
     e( 43 - 43) =     24.16091  eV     1   --> A              
     e( 44 - 44) =     24.52758  eV     1   --> A              
     e( 45 - 45) =     24.82397  eV     1   --> A              
     e( 46 - 46) =     25.98060  eV     1   --> A              
     e( 47 - 47) =     26.51097  eV     1   --> A              
     e( 48 - 48) =     26.63441  eV     1   --> A              
     e( 49 - 49) =     26.89322  eV     1   --> A              
     e( 50 - 50) =     27.13320  eV     1   --> A              
     e( 51 - 51) =     27.37062  eV     1   --> A              
     e( 52 - 52) =     27.84579  eV     1   --> A              
     e( 53 - 53) =     28.79212  eV     1   --> A              
     e( 54 - 54) =     28.92459  eV     1   --> A              
     e( 55 - 55) =     29.16698  eV     1   --> A              
     e( 56 - 56) =     29.70177  eV     1   --> A              
     e( 57 - 57) =     30.03866  eV     1   --> A              
     e( 58 - 58) =     31.41751  eV     1   --> A              
     e( 59 - 59) =     31.54344  eV     1   --> A              
     e( 60 - 60) =     32.91594  eV     1   --> A              
     e( 61 - 61) =     33.94949  eV     1   --> A              
     e( 62 - 62) =     34.31408  eV     1   --> A              
     e( 63 - 63) =     34.84970  eV     1   --> A              
     e( 64 - 64) =     36.04473  eV     1   --> A              
     e( 65 - 65) =     36.11568  eV     1   --> A              
     e( 66 - 66) =     36.12845  eV     1   --> A              
     e( 67 - 67) =     36.25463  eV     1   --> A              
     e( 68 - 68) =     36.76661  eV     1   --> A              
     e( 69 - 69) =     36.97740  eV     1   --> A              
     e( 70 - 70) =     38.19882  eV     1   --> A              

 **************************************************************************

 **************************************************************************

                    xk=(   0.15401,   0.08868,   0.00000  )

     Band symmetry, C_1 (1)     point group:

     e(  1 -  1) =    -13.27737  eV     1   --> A              
     e(  2 -  2) =    -13.21574  eV     1   --> A              
     e(  3 -  3) =    -11.56314  eV     1   --> A              
     e(  4 -  4) =    -11.46886  eV     1   --> A              
     e(  5 -  5) =      0.36969  eV     1   --> A              
     e(  6 -  6) =      0.42038  eV     1   --> A              
     e(  7 -  7) =      1.11229  eV     1   --> A              
     e(  8 -  8) =      1.26613  eV     1   --> A              
     e(  9 -  9) =      1.62284  eV     1   --> A              
     e( 10 - 10) =      1.80068  eV     1   --> A              
     e( 11 - 11) =      2.26890  eV     1   --> A              
     e( 12 - 12) =      2.63952  eV     1   --> A              
     e( 13 - 13) =      2.83851  eV     1   --> A              
     e( 14 - 14) =      3.14868  eV     1   --> A              
     e( 15 - 15) =      3.15650  eV     1   --> A              
     e( 16 - 16) =      3.76771  eV     1   --> A              
     e( 17 - 17) =      5.86454  eV     1   --> A              
     e( 18 - 18) =      6.90859  eV     1   --> A              
     e( 19 - 19) =      9.86986  eV     1   --> A              
     e( 20 - 20) =     11.69053  eV     1   --> A              
     e( 21 - 21) =     12.14201  eV     1   --> A              
     e( 22 - 22) =     13.47477  eV     1   --> A              
     e( 23 - 23) =     14.42004  eV     1   --> A              
     e( 24 - 24) =     14.77784  eV     1   --> A              
     e( 25 - 25) =     15.36732  eV     1   --> A              
     e( 26 - 26) =     15.59423  eV     1   --> A              
     e( 27 - 27) =     16.21605  eV     1   --> A              
     e( 28 - 28) =     16.66944  eV     1   --> A              
     e( 29 - 29) =     17.27568  eV     1   --> A              
     e( 30 - 30) =     18.39692  eV     1   --> A              
     e( 31 - 31) =     18.54760  eV     1   --> A              
     e( 32 - 32) =     18.61341  eV     1   --> A              
     e( 33 - 33) =     18.62312  eV     1   --> A              
     e( 34 - 34) =     18.99622  eV     1   --> A              
     e( 35 - 35) =     19.74334  eV     1   --> A              
     e( 36 - 36) =     20.92575  eV     1   --> A              
     e( 37 - 37) =     21.06556  eV     1   --> A              
     e( 38 - 38) =     21.82994  eV     1   --> A              
     e( 39 - 39) =     23.41564  eV     1   --> A              
     e( 40 - 40) =     23.74868  eV     1   --> A              
     e( 41 - 41) =     24.04851  eV     1   --> A              
     e( 42 - 42) =     24.24813  eV     1   --> A              
     e( 43 - 43) =     24.31170  eV     1   --> A              
     e( 44 - 44) =     24.64328  eV     1   --> A              
     e( 45 - 45) =     24.97547  eV     1   --> A              
     e( 46 - 46) =     26.22692  eV     1   --> A              
     e( 47 - 47) =     26.41979  eV     1   --> A              
     e( 48 - 48) =     26.69603  eV     1   --> A              
     e( 49 - 49) =     27.07194  eV     1   --> A              
     e( 50 - 50) =     27.55624  eV     1   --> A              
     e( 51 - 51) =     27.72414  eV     1   --> A              
     e( 52 - 52) =     27.92038  eV     1   --> A              
     e( 53 - 53) =     28.92459  eV     1   --> A              
     e( 54 - 54) =     29.12199  eV     1   --> A              
     e( 55 - 55) =     29.20367  eV     1   --> A              
     e( 56 - 56) =     29.96065  eV     1   --> A              
     e( 57 - 57) =     30.15791  eV     1   --> A              
     e( 58 - 58) =     31.15563  eV     1   --> A              
     e( 59 - 59) =     31.62090  eV     1   --> A              
     e( 60 - 60) =     32.87413  eV     1   --> A              
     e( 61 - 61) =     33.81857  eV     1   --> A              
     e( 62 - 62) =     34.26563  eV     1   --> A              
     e( 63 - 63) =     35.12252  eV     1   --> A              
     e( 64 - 64) =     35.94120  eV     1   --> A              
     e( 65 - 65) =     35.95277  eV     1   --> A              
     e( 66 - 66) =     36.08890  eV     1   --> A              
     e( 67 - 67) =     36.16272  eV     1   --> A              
     e( 68 - 68) =     36.69432  eV     1   --> A              
     e( 69 - 69) =     37.22616  eV     1   --> A              
     e( 70 - 70) =     38.30398  eV     1   --> A              

 **************************************************************************

 **************************************************************************

                    xk=(   0.17326,   0.09976,   0.00000  )

     Band symmetry, C_1 (1)     point group:

     e(  1 -  1) =    -13.23247  eV     1   --> A              
     e(  2 -  2) =    -13.17171  eV     1   --> A              
     e(  3 -  3) =    -11.55949  eV     1   --> A              
     e(  4 -  4) =    -11.46798  eV     1   --> A              
     e(  5 -  5) =      0.24711  eV     1   --> A              
     e(  6 -  6) =      0.47893  eV     1   --> A              
     e(  7 -  7) =      0.96285  eV     1   --> A              
     e(  8 -  8) =      1.20211  eV     1   --> A              
     e(  9 -  9) =      1.48150  eV     1   --> A              
     e( 10 - 10) =      1.73943  eV     1   --> A              
     e( 11 - 11) =      2.18311  eV     1   --> A              
     e( 12 - 12) =      2.71866  eV     1   --> A              
     e( 13 - 13) =      2.80830  eV     1   --> A              
     e( 14 - 14) =      3.13324  eV     1   --> A              
     e( 15 - 15) =      3.16228  eV     1   --> A              
     e( 16 - 16) =      3.84157  eV     1   --> A              
     e( 17 - 17) =      6.02259  eV     1   --> A              
     e( 18 - 18) =      6.87959  eV     1   --> A              
     e( 19 - 19) =     10.08349  eV     1   --> A              
     e( 20 - 20) =     11.76636  eV     1   --> A              
     e( 21 - 21) =     12.06731  eV     1   --> A              
     e( 22 - 22) =     13.48700  eV     1   --> A              
     e( 23 - 23) =     14.22068  eV     1   --> A              
     e( 24 - 24) =     14.70397  eV     1   --> A              
     e( 25 - 25) =     15.18612  eV     1   --> A              
     e( 26 - 26) =     15.61133  eV     1   --> A              
     e( 27 - 27) =     16.15574  eV     1   --> A              
     e( 28 - 28) =     16.55340  eV     1   --> A              
     e( 29 - 29) =     17.40489  eV     1   --> A              
     e( 30 - 30) =     18.25757  eV     1   --> A              
     e( 31 - 31) =     18.39673  eV     1   --> A              
     e( 32 - 32) =     18.67501  eV     1   --> A              
     e( 33 - 33) =     18.72171  eV     1   --> A              
     e( 34 - 34) =     18.90487  eV     1   --> A              
     e( 35 - 35) =     19.65761  eV     1   --> A              
     e( 36 - 36) =     20.85194  eV     1   --> A              
     e( 37 - 37) =     21.18571  eV     1   --> A              
     e( 38 - 38) =     22.07742  eV     1   --> A              
     e( 39 - 39) =     23.16313  eV     1   --> A              
     e( 40 - 40) =     23.62607  eV     1   --> A              
     e( 41 - 41) =     24.06193  eV     1   --> A              
     e( 42 - 42) =     24.42857  eV     1   --> A              
     e( 43 - 43) =     24.52142  eV     1   --> A              
     e( 44 - 44) =     24.87818  eV     1   --> A              
     e( 45 - 45) =     25.14431  eV     1   --> A              
     e( 46 - 46) =     26.31743  eV     1   --> A              
     e( 47 - 47) =     26.46294  eV     1   --> A              
     e( 48 - 48) =     26.82987  eV     1   --> A              
     e( 49 - 49) =     27.21238  eV     1   --> A              
     e( 50 - 50) =     27.98910  eV     1   --> A              
     e( 51 - 51) =     27.99494  eV     1   --> A              
     e( 52 - 52) =     28.11180  eV     1   --> A              
     e( 53 - 53) =     29.06013  eV     1   --> A              
     e( 54 - 54) =     29.23666  eV     1   --> A              
     e( 55 - 55) =     29.37421  eV     1   --> A              
     e( 56 - 56) =     30.21502  eV     1   --> A              
     e( 57 - 57) =     30.25459  eV     1   --> A              
     e( 58 - 58) =     30.91106  eV     1   --> A              
     e( 59 - 59) =     31.66053  eV     1   --> A              
     e( 60 - 60) =     32.84131  eV     1   --> A              
     e( 61 - 61) =     33.71135  eV     1   --> A              
     e( 62 - 62) =     34.22707  eV     1   --> A              
     e( 63 - 63) =     35.37729  eV     1   --> A              
     e( 64 - 64) =     35.79090  eV     1   --> A              
     e( 65 - 65) =     35.80836  eV     1   --> A              
     e( 66 - 66) =     36.06297  eV     1   --> A              
     e( 67 - 67) =     36.12980  eV     1   --> A              
     e( 68 - 68) =     36.62453  eV     1   --> A              
     e( 69 - 69) =     37.56742  eV     1   --> A              
     e( 70 - 70) =     38.40090  eV     1   --> A              

 **************************************************************************

 **************************************************************************

                    xk=(   0.19251,   0.11085,   0.00000  )

     Band symmetry, C_1 (1)     point group:

     e(  1 -  1) =    -13.18331  eV     1   --> A              
     e(  2 -  2) =    -13.12348  eV     1   --> A              
     e(  3 -  3) =    -11.55660  eV     1   --> A              
     e(  4 -  4) =    -11.46805  eV     1   --> A              
     e(  5 -  5) =      0.12920  eV     1   --> A              
     e(  6 -  6) =      0.53765  eV     1   --> A              
     e(  7 -  7) =      0.81918  eV     1   --> A              
     e(  8 -  8) =      1.11760  eV     1   --> A              
     e(  9 -  9) =      1.32922  eV     1   --> A              
     e( 10 - 10) =      1.68097  eV     1   --> A              
     e( 11 - 11) =      2.11218  eV     1   --> A              
     e( 12 - 12) =      2.78341  eV     1   --> A              
     e( 13 - 13) =      2.79246  eV     1   --> A              
     e( 14 - 14) =      3.11380  eV     1   --> A              
     e( 15 - 15) =      3.17510  eV     1   --> A              
     e( 16 - 16) =      3.90553  eV     1   --> A              
     e( 17 - 17) =      6.17749  eV     1   --> A              
     e( 18 - 18) =      6.85139  eV     1   --> A              
     e( 19 - 19) =     10.30535  eV     1   --> A              
     e( 20 - 20) =     11.85032  eV     1   --> A              
     e( 21 - 21) =     11.97792  eV     1   --> A              
     e( 22 - 22) =     13.37829  eV     1   --> A              
     e( 23 - 23) =     14.15574  eV     1   --> A              
     e( 24 - 24) =     14.62919  eV     1   --> A              
     e( 25 - 25) =     15.01470  eV     1   --> A              
     e( 26 - 26) =     15.61308  eV     1   --> A              
     e( 27 - 27) =     16.08342  eV     1   --> A              
     e( 28 - 28) =     16.42618  eV     1   --> A              
     e( 29 - 29) =     17.55899  eV     1   --> A              
     e( 30 - 30) =     17.98028  eV     1   --> A              
     e( 31 - 31) =     18.36393  eV     1   --> A              
     e( 32 - 32) =     18.73094  eV     1   --> A              
     e( 33 - 33) =     18.84557  eV     1   --> A              
     e( 34 - 34) =     18.84688  eV     1   --> A              
     e( 35 - 35) =     19.61965  eV     1   --> A              
     e( 36 - 36) =     20.77106  eV     1   --> A              
     e( 37 - 37) =     21.31446  eV     1   --> A              
     e( 38 - 38) =     22.30471  eV     1   --> A              
     e( 39 - 39) =     22.90919  eV     1   --> A              
     e( 40 - 40) =     23.52073  eV     1   --> A              
     e( 41 - 41) =     24.04647  eV     1   --> A              
     e( 42 - 42) =     24.50785  eV     1   --> A              
     e( 43 - 43) =     24.76408  eV     1   --> A              
     e( 44 - 44) =     25.17598  eV     1   --> A              
     e( 45 - 45) =     25.34177  eV     1   --> A              
     e( 46 - 46) =     26.20980  eV     1   --> A              
     e( 47 - 47) =     26.69197  eV     1   --> A              
     e( 48 - 48) =     27.03753  eV     1   --> A              
     e( 49 - 49) =     27.29686  eV     1   --> A              
     e( 50 - 50) =     28.06703  eV     1   --> A              
     e( 51 - 51) =     28.42313  eV     1   --> A              
     e( 52 - 52) =     28.52517  eV     1   --> A              
     e( 53 - 53) =     29.25627  eV     1   --> A              
     e( 54 - 54) =     29.27667  eV     1   --> A              
     e( 55 - 55) =     29.61795  eV     1   --> A              
     e( 56 - 56) =     30.29606  eV     1   --> A              
     e( 57 - 57) =     30.44150  eV     1   --> A              
     e( 58 - 58) =     30.70924  eV     1   --> A              
     e( 59 - 59) =     31.66062  eV     1   --> A              
     e( 60 - 60) =     32.82129  eV     1   --> A              
     e( 61 - 61) =     33.65396  eV     1   --> A              
     e( 62 - 62) =     34.20439  eV     1   --> A              
     e( 63 - 63) =     35.52927  eV     1   --> A              
     e( 64 - 64) =     35.65197  eV     1   --> A              
     e( 65 - 65) =     35.72787  eV     1   --> A              
     e( 66 - 66) =     36.01324  eV     1   --> A              
     e( 67 - 67) =     36.23713  eV     1   --> A              
     e( 68 - 68) =     36.55596  eV     1   --> A              
     e( 69 - 69) =     37.95319  eV     1   --> A              
     e( 70 - 70) =     38.48134  eV     1   --> A              

 **************************************************************************

 **************************************************************************

                    xk=(   0.21177,   0.12193,   0.00000  )

     Band symmetry, C_1 (1)     point group:

     e(  1 -  1) =    -13.13020  eV     1   --> A              
     e(  2 -  2) =    -13.07138  eV     1   --> A              
     e(  3 -  3) =    -11.55480  eV     1   --> A              
     e(  4 -  4) =    -11.46936  eV     1   --> A              
     e(  5 -  5) =      0.01760  eV     1   --> A              
     e(  6 -  6) =      0.59006  eV     1   --> A              
     e(  7 -  7) =      0.68293  eV     1   --> A              
     e(  8 -  8) =      1.01475  eV     1   --> A              
     e(  9 -  9) =      1.17814  eV     1   --> A              
     e( 10 - 10) =      1.62559  eV     1   --> A              
     e( 11 - 11) =      2.05192  eV     1   --> A              
     e( 12 - 12) =      2.79069  eV     1   --> A              
     e( 13 - 13) =      2.82754  eV     1   --> A              
     e( 14 - 14) =      3.09023  eV     1   --> A              
     e( 15 - 15) =      3.19969  eV     1   --> A              
     e( 16 - 16) =      3.95949  eV     1   --> A              
     e( 17 - 17) =      6.32838  eV     1   --> A              
     e( 18 - 18) =      6.82558  eV     1   --> A              
     e( 19 - 19) =     10.53265  eV     1   --> A              
     e( 20 - 20) =     11.87569  eV     1   --> A              
     e( 21 - 21) =     11.94232  eV     1   --> A              
     e( 22 - 22) =     13.16285  eV     1   --> A              
     e( 23 - 23) =     14.21270  eV     1   --> A              
     e( 24 - 24) =     14.54819  eV     1   --> A              
     e( 25 - 25) =     14.85581  eV     1   --> A              
     e( 26 - 26) =     15.59564  eV     1   --> A              
     e( 27 - 27) =     16.00175  eV     1   --> A              
     e( 28 - 28) =     16.29686  eV     1   --> A              
     e( 29 - 29) =     17.72506  eV     1   --> A              
     e( 30 - 30) =     17.72647  eV     1   --> A              
     e( 31 - 31) =     18.30957  eV     1   --> A              
     e( 32 - 32) =     18.78603  eV     1   --> A              
     e( 33 - 33) =     18.81836  eV     1   --> A              
     e( 34 - 34) =     18.98088  eV     1   --> A              
     e( 35 - 35) =     19.62609  eV     1   --> A              
     e( 36 - 36) =     20.69318  eV     1   --> A              
     e( 37 - 37) =     21.45107  eV     1   --> A              
     e( 38 - 38) =     22.50990  eV     1   --> A              
     e( 39 - 39) =     22.65751  eV     1   --> A              
     e( 40 - 40) =     23.43405  eV     1   --> A              
     e( 41 - 41) =     24.02635  eV     1   --> A              
     e( 42 - 42) =     24.55517  eV     1   --> A              
     e( 43 - 43) =     24.96597  eV     1   --> A              
     e( 44 - 44) =     25.50567  eV     1   --> A              
     e( 45 - 45) =     25.56301  eV     1   --> A              
     e( 46 - 46) =     26.10135  eV     1   --> A              
     e( 47 - 47) =     26.92499  eV     1   --> A              
     e( 48 - 48) =     27.30682  eV     1   --> A              
     e( 49 - 49) =     27.32482  eV     1   --> A              
     e( 50 - 50) =     28.13711  eV     1   --> A              
     e( 51 - 51) =     28.84862  eV     1   --> A              
     e( 52 - 52) =     28.95460  eV     1   --> A              
     e( 53 - 53) =     29.29538  eV     1   --> A              
     e( 54 - 54) =     29.54145  eV     1   --> A              
     e( 55 - 55) =     29.84435  eV     1   --> A              
     e( 56 - 56) =     30.26045  eV     1   --> A              
     e( 57 - 57) =     30.40542  eV     1   --> A              
     e( 58 - 58) =     30.78237  eV     1   --> A              
     e( 59 - 59) =     31.62390  eV     1   --> A              
     e( 60 - 60) =     32.79810  eV     1   --> A              
     e( 61 - 61) =     33.68814  eV     1   --> A              
     e( 62 - 62) =     34.20428  eV     1   --> A              
     e( 63 - 63) =     35.53375  eV     1   --> A              
     e( 64 - 64) =     35.56064  eV     1   --> A              
     e( 65 - 65) =     35.70872  eV     1   --> A              
     e( 66 - 66) =     35.96046  eV     1   --> A              
     e( 67 - 67) =     36.48775  eV     1   --> A              
     e( 68 - 68) =     36.50512  eV     1   --> A              
     e( 69 - 69) =     38.35482  eV     1   --> A              
     e( 70 - 70) =     38.53115  eV     1   --> A              

 **************************************************************************

 **************************************************************************

                    xk=(   0.23102,   0.13302,   0.00000  )

     Band symmetry, C_1 (1)     point group:

     e(  1 -  1) =    -13.07353  eV     1   --> A              
     e(  2 -  2) =    -13.01578  eV     1   --> A              
     e(  3 -  3) =    -11.55443  eV     1   --> A              
     e(  4 -  4) =    -11.47222  eV     1   --> A              
     e(  5 -  5) =     -0.08629  eV     1   --> A              
     e(  6 -  6) =      0.55544  eV     1   --> A              
     e(  7 -  7) =      0.62101  eV     1   --> A              
     e(  8 -  8) =      0.89819  eV     1   --> A              
     e(  9 -  9) =      1.04652  eV     1   --> A              
     e( 10 - 10) =      1.57142  eV     1   --> A              
     e( 11 - 11) =      2.00032  eV     1   --> A              
     e( 12 - 12) =      2.80236  eV     1   --> A              
     e( 13 - 13) =      2.84657  eV     1   --> A              
     e( 14 - 14) =      3.06209  eV     1   --> A              
     e( 15 - 15) =      3.23876  eV     1   --> A              
     e( 16 - 16) =      4.00373  eV     1   --> A              
     e( 17 - 17) =      6.47473  eV     1   --> A              
     e( 18 - 18) =      6.80384  eV     1   --> A              
     e( 19 - 19) =     10.76288  eV     1   --> A              
     e( 20 - 20) =     11.76301  eV     1   --> A              
     e( 21 - 21) =     12.04227  eV     1   --> A              
     e( 22 - 22) =     12.90483  eV     1   --> A              
     e( 23 - 23) =     14.32758  eV     1   --> A              
     e( 24 - 24) =     14.45641  eV     1   --> A              
     e( 25 - 25) =     14.71171  eV     1   --> A              
     e( 26 - 26) =     15.55819  eV     1   --> A              
     e( 27 - 27) =     15.91136  eV     1   --> A              
     e( 28 - 28) =     16.16921  eV     1   --> A              
     e( 29 - 29) =     17.50321  eV     1   --> A              
     e( 30 - 30) =     17.89897  eV     1   --> A              
     e( 31 - 31) =     18.23917  eV     1   --> A              
     e( 32 - 32) =     18.81660  eV     1   --> A              
     e( 33 - 33) =     18.84222  eV     1   --> A              
     e( 34 - 34) =     19.11585  eV     1   --> A              
     e( 35 - 35) =     19.67173  eV     1   --> A              
     e( 36 - 36) =     20.62803  eV     1   --> A              
     e( 37 - 37) =     21.59494  eV     1   --> A              
     e( 38 - 38) =     22.41164  eV     1   --> A              
     e( 39 - 39) =     22.69542  eV     1   --> A              
     e( 40 - 40) =     23.36673  eV     1   --> A              
     e( 41 - 41) =     24.00712  eV     1   --> A              
     e( 42 - 42) =     24.58192  eV     1   --> A              
     e( 43 - 43) =     25.13428  eV     1   --> A              
     e( 44 - 44) =     25.78064  eV     1   --> A              
     e( 45 - 45) =     25.85412  eV     1   --> A              
     e( 46 - 46) =     25.99684  eV     1   --> A              
     e( 47 - 47) =     27.17583  eV     1   --> A              
     e( 48 - 48) =     27.30540  eV     1   --> A              
     e( 49 - 49) =     27.61309  eV     1   --> A              
     e( 50 - 50) =     28.21046  eV     1   --> A              
     e( 51 - 51) =     29.25668  eV     1   --> A              
     e( 52 - 52) =     29.32582  eV     1   --> A              
     e( 53 - 53) =     29.38932  eV     1   --> A              
     e( 54 - 54) =     29.86021  eV     1   --> A              
     e( 55 - 55) =     30.05815  eV     1   --> A              
     e( 56 - 56) =     30.14094  eV     1   --> A              
     e( 57 - 57) =     30.22045  eV     1   --> A              
     e( 58 - 58) =     31.02097  eV     1   --> A              
     e( 59 - 59) =     31.55760  eV     1   --> A              
     e( 60 - 60) =     32.74498  eV     1   --> A              
     e( 61 - 61) =     33.84973  eV     1   --> A              
     e( 62 - 62) =     34.23390  eV     1   --> A              
     e( 63 - 63) =     35.45742  eV     1   --> A              
     e( 64 - 64) =     35.53072  eV     1   --> A              
     e( 65 - 65) =     35.75529  eV     1   --> A              
     e( 66 - 66) =     35.91415  eV     1   --> A              
     e( 67 - 67) =     36.42404  eV     1   --> A              
     e( 68 - 68) =     36.84276  eV     1   --> A              
     e( 69 - 69) =     38.44357  eV     1   --> A              
     e( 70 - 70) =     38.57841  eV     1   --> A              

 **************************************************************************

 **************************************************************************

                    xk=(   0.25027,   0.14410,   0.00000  )

     Band symmetry, C_1 (1)     point group:

     e(  1 -  1) =    -13.01371  eV     1   --> A              
     e(  2 -  2) =    -12.95706  eV     1   --> A              
     e(  3 -  3) =    -11.55583  eV     1   --> A              
     e(  4 -  4) =    -11.47691  eV     1   --> A              
     e(  5 -  5) =     -0.18126  eV     1   --> A              
     e(  6 -  6) =      0.43789  eV     1   --> A              
     e(  7 -  7) =      0.59930  eV     1   --> A              
     e(  8 -  8) =      0.77320  eV     1   --> A              
     e(  9 -  9) =      0.96588  eV     1   --> A              
     e( 10 - 10) =      1.51599  eV     1   --> A              
     e( 11 - 11) =      1.95793  eV     1   --> A              
     e( 12 - 12) =      2.82620  eV     1   --> A              
     e( 13 - 13) =      2.84185  eV     1   --> A              
     e( 14 - 14) =      3.02910  eV     1   --> A              
     e( 15 - 15) =      3.28960  eV     1   --> A              
     e( 16 - 16) =      4.03868  eV     1   --> A              
     e( 17 - 17) =      6.61612  eV     1   --> A              
     e( 18 - 18) =      6.78803  eV     1   --> A              
     e( 19 - 19) =     10.99370  eV     1   --> A              
     e( 20 - 20) =     11.64225  eV     1   --> A              
     e( 21 - 21) =     12.15012  eV     1   --> A              
     e( 22 - 22) =     12.63719  eV     1   --> A              
     e( 23 - 23) =     14.35118  eV     1   --> A              
     e( 24 - 24) =     14.46619  eV     1   --> A              
     e( 25 - 25) =     14.58436  eV     1   --> A              
     e( 26 - 26) =     15.50358  eV     1   --> A              
     e( 27 - 27) =     15.80978  eV     1   --> A              
     e( 28 - 28) =     16.04509  eV     1   --> A              
     e( 29 - 29) =     17.32394  eV     1   --> A              
     e( 30 - 30) =     18.07161  eV     1   --> A              
     e( 31 - 31) =     18.15646  eV     1   --> A              
     e( 32 - 32) =     18.83256  eV     1   --> A              
     e( 33 - 33) =     18.89920  eV     1   --> A              
     e( 34 - 34) =     19.24367  eV     1   --> A              
     e( 35 - 35) =     19.75027  eV     1   --> A              
     e( 36 - 36) =     20.58542  eV     1   --> A              
     e( 37 - 37) =     21.74542  eV     1   --> A              
     e( 38 - 38) =     22.17590  eV     1   --> A              
     e( 39 - 39) =     22.86503  eV     1   --> A              
     e( 40 - 40) =     23.31892  eV     1   --> A              
     e( 41 - 41) =     23.98872  eV     1   --> A              
     e( 42 - 42) =     24.59960  eV     1   --> A              
     e( 43 - 43) =     25.28091  eV     1   --> A              
     e( 44 - 44) =     25.90133  eV     1   --> A              
     e( 45 - 45) =     25.97203  eV     1   --> A              
     e( 46 - 46) =     26.20667  eV     1   --> A              
     e( 47 - 47) =     27.25309  eV     1   --> A              
     e( 48 - 48) =     27.45302  eV     1   --> A              
     e( 49 - 49) =     27.89483  eV     1   --> A              
     e( 50 - 50) =     28.32173  eV     1   --> A              
     e( 51 - 51) =     29.36349  eV     1   --> A              
     e( 52 - 52) =     29.62324  eV     1   --> A              
     e( 53 - 53) =     29.81635  eV     1   --> A              
     e( 54 - 54) =     29.97021  eV     1   --> A              
     e( 55 - 55) =     30.04087  eV     1   --> A              
     e( 56 - 56) =     30.12768  eV     1   --> A              
     e( 57 - 57) =     30.33329  eV     1   --> A              
     e( 58 - 58) =     31.27521  eV     1   --> A              
     e( 59 - 59) =     31.47327  eV     1   --> A              
     e( 60 - 60) =     32.65977  eV     1   --> A              
     e( 61 - 61) =     34.13118  eV     1   --> A              
     e( 62 - 62) =     34.30057  eV     1   --> A              
     e( 63 - 63) =     35.40843  eV     1   --> A              
     e( 64 - 64) =     35.49850  eV     1   --> A              
     e( 65 - 65) =     35.86590  eV     1   --> A              
     e( 66 - 66) =     35.87927  eV     1   --> A              
     e( 67 - 67) =     36.36509  eV     1   --> A              
     e( 68 - 68) =     37.19280  eV     1   --> A              
     e( 69 - 69) =     38.30922  eV     1   --> A              
     e( 70 - 70) =     38.59711  eV     1   --> A              

 **************************************************************************

 **************************************************************************

                    xk=(   0.26952,   0.15519,   0.00000  )

     Band symmetry, C_1 (1)     point group:

     e(  1 -  1) =    -12.95115  eV     1   --> A              
     e(  2 -  2) =    -12.89565  eV     1   --> A              
     e(  3 -  3) =    -11.55932  eV     1   --> A              
     e(  4 -  4) =    -11.48371  eV     1   --> A              
     e(  5 -  5) =     -0.26620  eV     1   --> A              
     e(  6 -  6) =      0.33121  eV     1   --> A              
     e(  7 -  7) =      0.50983  eV     1   --> A              
     e(  8 -  8) =      0.64455  eV     1   --> A              
     e(  9 -  9) =      0.94919  eV     1   --> A              
     e( 10 - 10) =      1.45728  eV     1   --> A              
     e( 11 - 11) =      1.92769  eV     1   --> A              
     e( 12 - 12) =      2.81803  eV     1   --> A              
     e( 13 - 13) =      2.86088  eV     1   --> A              
     e( 14 - 14) =      2.99101  eV     1   --> A              
     e( 15 - 15) =      3.34616  eV     1   --> A              
     e( 16 - 16) =      4.06498  eV     1   --> A              
     e( 17 - 17) =      6.75196  eV     1   --> A              
     e( 18 - 18) =      6.78029  eV     1   --> A              
     e( 19 - 19) =     11.22292  eV     1   --> A              
     e( 20 - 20) =     11.51561  eV     1   --> A              
     e( 21 - 21) =     12.26581  eV     1   --> A              
     e( 22 - 22) =     12.37269  eV     1   --> A              
     e( 23 - 23) =     14.23386  eV     1   --> A              
     e( 24 - 24) =     14.47537  eV     1   --> A              
     e( 25 - 25) =     14.60987  eV     1   --> A              
     e( 26 - 26) =     15.43998  eV     1   --> A              
     e( 27 - 27) =     15.69290  eV     1   --> A              
     e( 28 - 28) =     15.92552  eV     1   --> A              
     e( 29 - 29) =     17.19577  eV     1   --> A              
     e( 30 - 30) =     18.06430  eV     1   --> A              
     e( 31 - 31) =     18.23902  eV     1   --> A              
     e( 32 - 32) =     18.85420  eV     1   --> A              
     e( 33 - 33) =     18.95750  eV     1   --> A              
     e( 34 - 34) =     19.35564  eV     1   --> A              
     e( 35 - 35) =     19.85481  eV     1   --> A              
     e( 36 - 36) =     20.57424  eV     1   --> A              
     e( 37 - 37) =     21.90177  eV     1   --> A              
     e( 38 - 38) =     21.95514  eV     1   --> A              
     e( 39 - 39) =     23.02279  eV     1   --> A              
     e( 40 - 40) =     23.29033  eV     1   --> A              
     e( 41 - 41) =     23.96998  eV     1   --> A              
     e( 42 - 42) =     24.61738  eV     1   --> A              
     e( 43 - 43) =     25.41299  eV     1   --> A              
     e( 44 - 44) =     25.82015  eV     1   --> A              
     e( 45 - 45) =     26.12394  eV     1   --> A              
     e( 46 - 46) =     26.55549  eV     1   --> A              
     e( 47 - 47) =     27.17834  eV     1   --> A              
     e( 48 - 48) =     27.75103  eV     1   --> A              
     e( 49 - 49) =     28.03973  eV     1   --> A              
     e( 50 - 50) =     28.55209  eV     1   --> A              
     e( 51 - 51) =     29.42160  eV     1   --> A              
     e( 52 - 52) =     29.64285  eV     1   --> A              
     e( 53 - 53) =     29.87622  eV     1   --> A              
     e( 54 - 54) =     30.07449  eV     1   --> A              
     e( 55 - 55) =     30.22630  eV     1   --> A              
     e( 56 - 56) =     30.27652  eV     1   --> A              
     e( 57 - 57) =     30.71928  eV     1   --> A              
     e( 58 - 58) =     31.38603  eV     1   --> A              
     e( 59 - 59) =     31.53974  eV     1   --> A              
     e( 60 - 60) =     32.56098  eV     1   --> A              
     e( 61 - 61) =     34.40658  eV     1   --> A              
     e( 62 - 62) =     34.49668  eV     1   --> A              
     e( 63 - 63) =     35.38438  eV     1   --> A              
     e( 64 - 64) =     35.47323  eV     1   --> A              
     e( 65 - 65) =     35.85689  eV     1   --> A              
     e( 66 - 66) =     36.03312  eV     1   --> A              
     e( 67 - 67) =     36.31736  eV     1   --> A              
     e( 68 - 68) =     37.52446  eV     1   --> A              
     e( 69 - 69) =     38.13596  eV     1   --> A              
     e( 70 - 70) =     38.60061  eV     1   --> A              

 **************************************************************************

 **************************************************************************

                    xk=(   0.28877,   0.16627,   0.00000  )

     Band symmetry, C_1 (1)     point group:

     e(  1 -  1) =    -12.88632  eV     1   --> A              
     e(  2 -  2) =    -12.83200  eV     1   --> A              
     e(  3 -  3) =    -11.56520  eV     1   --> A              
     e(  4 -  4) =    -11.49286  eV     1   --> A              
     e(  5 -  5) =     -0.34022  eV     1   --> A              
     e(  6 -  6) =      0.23631  eV     1   --> A              
     e(  7 -  7) =      0.38519  eV     1   --> A              
     e(  8 -  8) =      0.51624  eV     1   --> A              
     e(  9 -  9) =      0.95984  eV     1   --> A              
     e( 10 - 10) =      1.39403  eV     1   --> A              
     e( 11 - 11) =      1.91446  eV     1   --> A              
     e( 12 - 12) =      2.77964  eV     1   --> A              
     e( 13 - 13) =      2.90496  eV     1   --> A              
     e( 14 - 14) =      2.94773  eV     1   --> A              
     e( 15 - 15) =      3.40263  eV     1   --> A              
     e( 16 - 16) =      4.08346  eV     1   --> A              
     e( 17 - 17) =      6.78112  eV     1   --> A              
     e( 18 - 18) =      6.88329  eV     1   --> A              
     e( 19 - 19) =     11.38485  eV     1   --> A              
     e( 20 - 20) =     11.44839  eV     1   --> A              
     e( 21 - 21) =     12.11707  eV     1   --> A              
     e( 22 - 22) =     12.38927  eV     1   --> A              
     e( 23 - 23) =     14.10724  eV     1   --> A              
     e( 24 - 24) =     14.38644  eV     1   --> A              
     e( 25 - 25) =     14.73785  eV     1   --> A              
     e( 26 - 26) =     15.38629  eV     1   --> A              
     e( 27 - 27) =     15.55902  eV     1   --> A              
     e( 28 - 28) =     15.81117  eV     1   --> A              
     e( 29 - 29) =     17.12132  eV     1   --> A              
     e( 30 - 30) =     17.96595  eV     1   --> A              
     e( 31 - 31) =     18.39650  eV     1   --> A              
     e( 32 - 32) =     18.87100  eV     1   --> A              
     e( 33 - 33) =     19.01562  eV     1   --> A              
     e( 34 - 34) =     19.44167  eV     1   --> A              
     e( 35 - 35) =     19.97813  eV     1   --> A              
     e( 36 - 36) =     20.60008  eV     1   --> A              
     e( 37 - 37) =     21.75531  eV     1   --> A              
     e( 38 - 38) =     22.06312  eV     1   --> A              
     e( 39 - 39) =     23.17184  eV     1   --> A              
     e( 40 - 40) =     23.28035  eV     1   --> A              
     e( 41 - 41) =     23.95042  eV     1   --> A              
     e( 42 - 42) =     24.64163  eV     1   --> A              
     e( 43 - 43) =     25.53278  eV     1   --> A              
     e( 44 - 44) =     25.75839  eV     1   --> A              
     e( 45 - 45) =     26.23979  eV     1   --> A              
     e( 46 - 46) =     26.89174  eV     1   --> A              
     e( 47 - 47) =     27.08976  eV     1   --> A              
     e( 48 - 48) =     28.04571  eV     1   --> A              
     e( 49 - 49) =     28.05396  eV     1   --> A              
     e( 50 - 50) =     28.84757  eV     1   --> A              
     e( 51 - 51) =     29.39411  eV     1   --> A              
     e( 52 - 52) =     29.53099  eV     1   --> A              
     e( 53 - 53) =     29.73218  eV     1   --> A              
     e( 54 - 54) =     30.36906  eV     1   --> A              
     e( 55 - 55) =     30.41010  eV     1   --> A              
     e( 56 - 56) =     30.60117  eV     1   --> A              
[...]
     e( 61 - 61) =     34.12912  eV     1   --> A'             
     e( 62 - 62) =     34.41299  eV     1   --> A'             
     e( 63 - 63) =     34.48216  eV     1   --> A''            
     e( 64 - 64) =     35.14613  eV     1   --> A'             
     e( 65 - 65) =     36.61849  eV     1   --> A'             
     e( 66 - 66) =     36.67127  eV     1   --> A''            
     e( 67 - 67) =     36.93519  eV     1   --> A'             
     e( 68 - 68) =     36.95029  eV     1   --> A''            
     e( 69 - 69) =     37.10620  eV     1   --> A'             
     e( 70 - 70) =     37.93111  eV     1   --> A'             

 **************************************************************************

 **************************************************************************

                    xk=(   0.05775,   0.00000,   0.00000  )

     Band symmetry, C_s (m)     point group:

     e(  1 -  1) =    -13.43480  eV     1   --> A'             
     e(  2 -  2) =    -13.37013  eV     1   --> A'             
     e(  3 -  3) =    -11.58324  eV     1   --> A'             
     e(  4 -  4) =    -11.47879  eV     1   --> A'             
     e(  5 -  5) =      0.19682  eV     1   --> A'             
     e(  6 -  6) =      1.01236  eV     1   --> A'             
     e(  7 -  7) =      1.37528  eV     1   --> A'             
     e(  8 -  8) =      1.90467  eV     1   --> A'             
     e(  9 -  9) =      2.00409  eV     1   --> A''            
     e( 10 - 10) =      2.04802  eV     1   --> A''            
     e( 11 - 11) =      2.14805  eV     1   --> A'             
     e( 12 - 12) =      2.97304  eV     1   --> A'             
     e( 13 - 13) =      3.12598  eV     1   --> A'             
     e( 14 - 14) =      3.14241  eV     1   --> A''            
     e( 15 - 15) =      3.20222  eV     1   --> A''            
     e( 16 - 16) =      3.25715  eV     1   --> A'             
     e( 17 - 17) =      5.05480  eV     1   --> A'             
     e( 18 - 18) =      7.03030  eV     1   --> A'             
     e( 19 - 19) =      9.00716  eV     1   --> A'             
     e( 20 - 20) =     11.42828  eV     1   --> A'             
     e( 21 - 21) =     12.30798  eV     1   --> A'             
     e( 22 - 22) =     13.09440  eV     1   --> A'             
     e( 23 - 23) =     15.21953  eV     1   --> A'             
     e( 24 - 24) =     15.32525  eV     1   --> A''            
     e( 25 - 25) =     15.99547  eV     1   --> A'             
     e( 26 - 26) =     16.30064  eV     1   --> A''            
     e( 27 - 27) =     16.32431  eV     1   --> A'             
     e( 28 - 28) =     16.55473  eV     1   --> A''            
     e( 29 - 29) =     17.59986  eV     1   --> A'             
     e( 30 - 30) =     18.03413  eV     1   --> A''            
     e( 31 - 31) =     18.21905  eV     1   --> A'             
     e( 32 - 32) =     18.36969  eV     1   --> A'             
     e( 33 - 33) =     19.78654  eV     1   --> A'             
     e( 34 - 34) =     19.91140  eV     1   --> A''            
     e( 35 - 35) =     20.20766  eV     1   --> A'             
     e( 36 - 36) =     20.59638  eV     1   --> A'             
     e( 37 - 37) =     20.92846  eV     1   --> A'             
     e( 38 - 38) =     21.27253  eV     1   --> A''            
     e( 39 - 39) =     22.99788  eV     1   --> A'             
     e( 40 - 40) =     23.06241  eV     1   --> A''            
     e( 41 - 41) =     23.46941  eV     1   --> A'             
     e( 42 - 42) =     23.99672  eV     1   --> A'             
     e( 43 - 43) =     24.54865  eV     1   --> A'             
     e( 44 - 44) =     24.55061  eV     1   --> A''            
     e( 45 - 45) =     24.87174  eV     1   --> A'             
     e( 46 - 46) =     25.07157  eV     1   --> A''            
     e( 47 - 47) =     25.65843  eV     1   --> A'             
     e( 48 - 48) =     26.06665  eV     1   --> A'             
     e( 49 - 49) =     26.35416  eV     1   --> A'             
     e( 50 - 50) =     26.81516  eV     1   --> A'             
     e( 51 - 51) =     26.81719  eV     1   --> A''            
     e( 52 - 52) =     27.59014  eV     1   --> A'             
     e( 53 - 53) =     27.77208  eV     1   --> A''            
     e( 54 - 54) =     28.71167  eV     1   --> A'             
     e( 55 - 55) =     28.94496  eV     1   --> A'             
     e( 56 - 56) =     28.99368  eV     1   --> A''            
     e( 57 - 57) =     29.63832  eV     1   --> A'             
     e( 58 - 58) =     30.98251  eV     1   --> A'             
     e( 59 - 59) =     32.65689  eV     1   --> A'             
     e( 60 - 60) =     33.05079  eV     1   --> A''            
     e( 61 - 61) =     34.02842  eV     1   --> A'             
     e( 62 - 62) =     34.49001  eV     1   --> A'             
     e( 63 - 63) =     34.51587  eV     1   --> A''            
     e( 64 - 64) =     34.89000  eV     1   --> A'             
     e( 65 - 65) =     36.70417  eV     1   --> A'             
     e( 66 - 66) =     36.71560  eV     1   --> A''            
     e( 67 - 67) =     37.07051  eV     1   --> A''            
     e( 68 - 68) =     37.08676  eV     1   --> A'             
     e( 69 - 69) =     37.19997  eV     1   --> A'             
     e( 70 - 70) =     37.94125  eV     1   --> A'             

 **************************************************************************

 **************************************************************************

                    xk=(   0.03850,   0.00000,   0.00000  )

     Band symmetry, C_s (m)     point group:

     e(  1 -  1) =    -13.44547  eV     1   --> A'             
     e(  2 -  2) =    -13.38059  eV     1   --> A'             
     e(  3 -  3) =    -11.58501  eV     1   --> A'             
     e(  4 -  4) =    -11.47984  eV     1   --> A'             
     e(  5 -  5) =      0.18111  eV     1   --> A'             
     e(  6 -  6) =      1.08388  eV     1   --> A'             
     e(  7 -  7) =      1.37703  eV     1   --> A'             
     e(  8 -  8) =      1.99523  eV     1   --> A'             
     e(  9 -  9) =      2.01925  eV     1   --> A''            
     e( 10 - 10) =      2.06282  eV     1   --> A''            
     e( 11 - 11) =      2.08970  eV     1   --> A'             
     e( 12 - 12) =      3.06312  eV     1   --> A'             
     e( 13 - 13) =      3.14121  eV     1   --> A''            
     e( 14 - 14) =      3.15743  eV     1   --> A'             
     e( 15 - 15) =      3.19516  eV     1   --> A'             
     e( 16 - 16) =      3.20033  eV     1   --> A''            
     e( 17 - 17) =      4.96753  eV     1   --> A'             
     e( 18 - 18) =      7.03940  eV     1   --> A'             
     e( 19 - 19) =      8.94015  eV     1   --> A'             
     e( 20 - 20) =     11.41064  eV     1   --> A'             
     e( 21 - 21) =     12.31169  eV     1   --> A'             
     e( 22 - 22) =     13.06213  eV     1   --> A'             
     e( 23 - 23) =     15.27289  eV     1   --> A'             
     e( 24 - 24) =     15.31011  eV     1   --> A''            
     e( 25 - 25) =     16.15787  eV     1   --> A'             
     e( 26 - 26) =     16.28911  eV     1   --> A''            
     e( 27 - 27) =     16.42393  eV     1   --> A'             
     e( 28 - 28) =     16.51844  eV     1   --> A''            
     e( 29 - 29) =     17.71135  eV     1   --> A'             
     e( 30 - 30) =     18.00003  eV     1   --> A''            
     e( 31 - 31) =     18.13599  eV     1   --> A'             
     e( 32 - 32) =     18.33201  eV     1   --> A'             
     e( 33 - 33) =     19.88878  eV     1   --> A'             
     e( 34 - 34) =     19.98568  eV     1   --> A''            
     e( 35 - 35) =     20.07488  eV     1   --> A'             
     e( 36 - 36) =     20.59644  eV     1   --> A'             
     e( 37 - 37) =     21.10996  eV     1   --> A'             
     e( 38 - 38) =     21.27284  eV     1   --> A''            
     e( 39 - 39) =     22.91136  eV     1   --> A'             
     e( 40 - 40) =     22.92865  eV     1   --> A''            
     e( 41 - 41) =     23.38995  eV     1   --> A'             
     e( 42 - 42) =     23.81810  eV     1   --> A'             
     e( 43 - 43) =     24.64613  eV     1   --> A''            
     e( 44 - 44) =     24.65280  eV     1   --> A'             
     e( 45 - 45) =     24.92549  eV     1   --> A'             
     e( 46 - 46) =     25.00922  eV     1   --> A''            
     e( 47 - 47) =     25.49907  eV     1   --> A'             
     e( 48 - 48) =     25.97232  eV     1   --> A'             
     e( 49 - 49) =     26.26467  eV     1   --> A'             
     e( 50 - 50) =     26.84165  eV     1   --> A''            
     e( 51 - 51) =     26.85519  eV     1   --> A'             
     e( 52 - 52) =     27.56832  eV     1   --> A'             
     e( 53 - 53) =     27.64292  eV     1   --> A''            
     e( 54 - 54) =     28.59223  eV     1   --> A'             
     e( 55 - 55) =     28.96465  eV     1   --> A'             
     e( 56 - 56) =     28.96845  eV     1   --> A''            
     e( 57 - 57) =     29.60363  eV     1   --> A'             
     e( 58 - 58) =     30.89634  eV     1   --> A'             
     e( 59 - 59) =     32.87273  eV     1   --> A'             
     e( 60 - 60) =     33.06261  eV     1   --> A''            
     e( 61 - 61) =     33.95727  eV     1   --> A'             
     e( 62 - 62) =     34.53955  eV     1   --> A''            
     e( 63 - 63) =     34.54766  eV     1   --> A'             
     e( 64 - 64) =     34.65987  eV     1   --> A'             
     e( 65 - 65) =     36.74830  eV     1   --> A''            
     e( 66 - 66) =     36.76262  eV     1   --> A'             
     e( 67 - 67) =     37.18295  eV     1   --> A''            
     e( 68 - 68) =     37.21272  eV     1   --> A'             
     e( 69 - 69) =     37.26620  eV     1   --> A'             
     e( 70 - 70) =     37.99884  eV     1   --> A'             

 **************************************************************************

 **************************************************************************

                    xk=(   0.01925,   0.00000,   0.00000  )

     Band symmetry, C_s (m)     point group:

     e(  1 -  1) =    -13.45189  eV     1   --> A'             
     e(  2 -  2) =    -13.38688  eV     1   --> A'             
     e(  3 -  3) =    -11.58609  eV     1   --> A'             
     e(  4 -  4) =    -11.48049  eV     1   --> A'             
     e(  5 -  5) =      0.17162  eV     1   --> A'             
     e(  6 -  6) =      1.13176  eV     1   --> A'             
     e(  7 -  7) =      1.37784  eV     1   --> A'             
     e(  8 -  8) =      2.02852  eV     1   --> A''            
     e(  9 -  9) =      2.04920  eV     1   --> A'             
     e( 10 - 10) =      2.05603  eV     1   --> A'             
     e( 11 - 11) =      2.07188  eV     1   --> A''            
     e( 12 - 12) =      3.12284  eV     1   --> A'             
     e( 13 - 13) =      3.13330  eV     1   --> A'             
     e( 14 - 14) =      3.14042  eV     1   --> A''            
     e( 15 - 15) =      3.19553  eV     1   --> A'             
     e( 16 - 16) =      3.19909  eV     1   --> A''            
     e( 17 - 17) =      4.91015  eV     1   --> A'             
     e( 18 - 18) =      7.04493  eV     1   --> A'             
     e( 19 - 19) =      8.89911  eV     1   --> A'             
     e( 20 - 20) =     11.40002  eV     1   --> A'             
     e( 21 - 21) =     12.31334  eV     1   --> A'             
     e( 22 - 22) =     13.04249  eV     1   --> A'             
     e( 23 - 23) =     15.30086  eV     1   --> A''            
     e( 24 - 24) =     15.30670  eV     1   --> A'             
     e( 25 - 25) =     16.26357  eV     1   --> A'             
     e( 26 - 26) =     16.28181  eV     1   --> A''            
     e( 27 - 27) =     16.48805  eV     1   --> A'             
     e( 28 - 28) =     16.49660  eV     1   --> A''            
     e( 29 - 29) =     17.81400  eV     1   --> A'             
     e( 30 - 30) =     17.97945  eV     1   --> A''            
     e( 31 - 31) =     18.05076  eV     1   --> A'             
     e( 32 - 32) =     18.30561  eV     1   --> A'             
     e( 33 - 33) =     19.87509  eV     1   --> A'             
     e( 34 - 34) =     20.03531  eV     1   --> A''            
     e( 35 - 35) =     20.05840  eV     1   --> A'             
     e( 36 - 36) =     20.60022  eV     1   --> A'             
     e( 37 - 37) =     21.24264  eV     1   --> A'             
     e( 38 - 38) =     21.27268  eV     1   --> A''            
     e( 39 - 39) =     22.84470  eV     1   --> A''            
     e( 40 - 40) =     22.85914  eV     1   --> A'             
     e( 41 - 41) =     23.34102  eV     1   --> A'             
     e( 42 - 42) =     23.68137  eV     1   --> A'             
     e( 43 - 43) =     24.70798  eV     1   --> A''            
     e( 44 - 44) =     24.72051  eV     1   --> A'             
     e( 45 - 45) =     24.96887  eV     1   --> A'             
     e( 46 - 46) =     24.97105  eV     1   --> A''            
     e( 47 - 47) =     25.39895  eV     1   --> A'             
     e( 48 - 48) =     25.91211  eV     1   --> A'             
     e( 49 - 49) =     26.21164  eV     1   --> A'             
     e( 50 - 50) =     26.85681  eV     1   --> A''            
     e( 51 - 51) =     26.87890  eV     1   --> A'             
     e( 52 - 52) =     27.55718  eV     1   --> A'             
     e( 53 - 53) =     27.56082  eV     1   --> A''            
     e( 54 - 54) =     28.51655  eV     1   --> A'             
     e( 55 - 55) =     28.95280  eV     1   --> A''            
     e( 56 - 56) =     28.97663  eV     1   --> A'             
     e( 57 - 57) =     29.58318  eV     1   --> A'             
     e( 58 - 58) =     30.84068  eV     1   --> A'             
     e( 59 - 59) =     33.03627  eV     1   --> A'             
     e( 60 - 60) =     33.06984  eV     1   --> A''            
     e( 61 - 61) =     33.91495  eV     1   --> A'             
     e( 62 - 62) =     34.48438  eV     1   --> A'             
     e( 63 - 63) =     34.55360  eV     1   --> A''            
     e( 64 - 64) =     34.58634  eV     1   --> A'             
     e( 65 - 65) =     36.76841  eV     1   --> A''            
     e( 66 - 66) =     36.79652  eV     1   --> A'             
     e( 67 - 67) =     37.26957  eV     1   --> A''            
     e( 68 - 68) =     37.29709  eV     1   --> A'             
     e( 69 - 69) =     37.30087  eV     1   --> A'             
     e( 70 - 70) =     38.08654  eV     1   --> A'             

 **************************************************************************

 **************************************************************************

                    xk=(   0.00000,   0.00000,   0.00000  )

     Band symmetry, C_s (m)     point group:

     e(  1 -  1) =    -13.45403  eV     1   --> A'             
     e(  2 -  2) =    -13.38898  eV     1   --> A'             
     e(  3 -  3) =    -11.58645  eV     1   --> A'             
     e(  4 -  4) =    -11.48071  eV     1   --> A'             
     e(  5 -  5) =      0.16846  eV     1   --> A'             
     e(  6 -  6) =      1.14879  eV     1   --> A'             
     e(  7 -  7) =      1.37807  eV     1   --> A'             
     e(  8 -  8) =      2.03168  eV     1   --> A''            
     e(  9 -  9) =      2.03461  eV     1   --> A'             
     e( 10 - 10) =      2.07492  eV     1   --> A''            
     e( 11 - 11) =      2.07772  eV     1   --> A'             
     e( 12 - 12) =      3.11729  eV     1   --> A'             
     e( 13 - 13) =      3.14017  eV     1   --> A''            
     e( 14 - 14) =      3.14393  eV     1   --> A'             
     e( 15 - 15) =      3.19867  eV     1   --> A''            
     e( 16 - 16) =      3.20244  eV     1   --> A'             
     e( 17 - 17) =      4.89002  eV     1   --> A'             
     e( 18 - 18) =      7.04680  eV     1   --> A'             
     e( 19 - 19) =      8.88530  eV     1   --> A'             
     e( 20 - 20) =     11.39647  eV     1   --> A'             
     e( 21 - 21) =     12.31380  eV     1   --> A'             
     e( 22 - 22) =     13.03590  eV     1   --> A'             
     e( 23 - 23) =     15.29776  eV     1   --> A''            
     e( 24 - 24) =     15.31828  eV     1   --> A'             
     e( 25 - 25) =     16.27931  eV     1   --> A''            
     e( 26 - 26) =     16.30044  eV     1   --> A'             
     e( 27 - 27) =     16.48931  eV     1   --> A''            
     e( 28 - 28) =     16.51026  eV     1   --> A'             
     e( 29 - 29) =     17.87571  eV     1   --> A'             
     e( 30 - 30) =     17.97257  eV     1   --> A''            
     e( 31 - 31) =     17.99493  eV     1   --> A'             
     e( 32 - 32) =     18.29606  eV     1   --> A'             
     e( 33 - 33) =     19.84914  eV     1   --> A'             
     e( 34 - 34) =     20.05282  eV     1   --> A''            
     e( 35 - 35) =     20.07178  eV     1   --> A'             
     e( 36 - 36) =     20.60310  eV     1   --> A'             
     e( 37 - 37) =     21.27251  eV     1   --> A''            
     e( 38 - 38) =     21.29132  eV     1   --> A'             
     e( 39 - 39) =     22.81602  eV     1   --> A''            
     e( 40 - 40) =     22.84201  eV     1   --> A'             
     e( 41 - 41) =     23.32451  eV     1   --> A'             
     e( 42 - 42) =     23.62972  eV     1   --> A'             
     e( 43 - 43) =     24.72947  eV     1   --> A''            
     e( 44 - 44) =     24.74416  eV     1   --> A'             
     e( 45 - 45) =     24.95821  eV     1   --> A''            
     e( 46 - 46) =     24.98491  eV     1   --> A'             
     e( 47 - 47) =     25.36483  eV     1   --> A'             
     e( 48 - 48) =     25.89128  eV     1   --> A'             
     e( 49 - 49) =     26.19406  eV     1   --> A'             
     e( 50 - 50) =     26.86194  eV     1   --> A''            
     e( 51 - 51) =     26.88663  eV     1   --> A'             
     e( 52 - 52) =     27.53258  eV     1   --> A''            
     e( 53 - 53) =     27.55394  eV     1   --> A'             
     e( 54 - 54) =     28.49058  eV     1   --> A'             
     e( 55 - 55) =     28.94749  eV     1   --> A''            
     e( 56 - 56) =     28.98065  eV     1   --> A'             
     e( 57 - 57) =     29.57644  eV     1   --> A'             
     e( 58 - 58) =     30.82143  eV     1   --> A'             
     e( 59 - 59) =     33.07229  eV     1   --> A''            
     e( 60 - 60) =     33.10059  eV     1   --> A'             
     e( 61 - 61) =     33.90091  eV     1   --> A'             
     e( 62 - 62) =     34.41730  eV     1   --> A'             
     e( 63 - 63) =     34.55826  eV     1   --> A''            
     e( 64 - 64) =     34.59822  eV     1   --> A'             
     e( 65 - 65) =     36.77521  eV     1   --> A''            
     e( 66 - 66) =     36.80764  eV     1   --> A'             
     e( 67 - 67) =     37.30365  eV     1   --> A''            
     e( 68 - 68) =     37.31096  eV     1   --> A'             
     e( 69 - 69) =     37.32705  eV     1   --> A'             
     e( 70 - 70) =     38.11664  eV     1   --> A''            

 **************************************************************************
 
     BANDS        :      9.15s CPU     12.64s WALL

 
   This run was terminated on:  12:48:15  19Jun2023            

=------------------------------------------------------------------------------=
   JOB DONE.
=------------------------------------------------------------------------------=
