
     Program PWSCF v.7.1 starts on 19Jun2023 at 12:44:55 

     This program is part of the open-source Quantum ESPRESSO suite
     for quantum simulation of materials; please cite
         "P. Giannozzi et al., J. Phys.:Condens. Matter 21 395502 (2009);
         "P. Giannozzi et al., J. Phys.:Condens. Matter 29 465901 (2017);
         "P. Giannozzi et al., J. Chem. Phys. 152 154105 (2020);
          URL http://www.quantum-espresso.org", 
     in publications or presentations arising from this work. More details at
     http://www.quantum-espresso.org/quote

     Parallel version (MPI), running on    16 processors

     MPI processes distributed on     1 nodes
     47910 MiB available memory on the printing compute node when the environment starts
 
     Waiting for input...
     Reading input from standard input

     Current dimensions of program PWSCF are:
     Max number of different atomic species (ntypx) = 10
     Max number of k-points (npk) =  40000
     Max angular momentum in pseudopotentials (lmaxx) =  4
     Message from routine volume:
     axis vectors are left-handed

     Atomic positions and unit cell read from directory:
     ./work/Al2O2.save/
     Atomic positions from file used, from input discarded
 
     Message from routine volume:
     axis vectors are left-handed
     file Al.pbe-n-kjpaw_psl.1.0.0.UPF: wavefunction(s)  3S 3P renormalized
     file O.pbe-n-kjpaw_psl.1.0.0.UPF: wavefunction(s)  2S 2P renormalized

     IMPORTANT: XC functional enforced from input :
     Exchange-correlation= VDW-DF2-B86R
                           (   1   4  26   0   2   0   0)
     Any further DFT definition will be discarded
     Please, verify this is what you really want

     Message from routine setup:
     using ibrav=0 with symmetry is DISCOURAGED, use correct ibrav instead
 
     R & G space division:  proc/nbgrp/npool/nimage =      16
     Subspace diagonalization in iterative solution of the eigenvalue problem:
     a serial algorithm will be used

 
     Parallelization info
     --------------------
     sticks:   dense  smooth     PW     G-vecs:    dense   smooth      PW
     Min          39      39     11                 2489     2489     395
     Max          40      40     12                 2493     2493     404
     Sum         625     625    187                39849    39849    6439
 
     Using Slab Decomposition
 


     bravais-lattice index     =            0
     lattice parameter (alat)  =       6.1344  a.u.
     unit-cell volume          =     635.4896 (a.u.)^3
     number of atoms/cell      =            8
     number of atomic types    =            2
     number of electrons       =        36.00
     number of Kohn-Sham states=           70
     kinetic-energy cutoff     =      60.0000  Ry
     charge density cutoff     =     240.0000  Ry
     Exchange-correlation= VDW-DF2-B86R
                           (   1   4  26   0   2   0   0)

     celldm(1)=   6.134387  celldm(2)=   0.000000  celldm(3)=   0.000000
     celldm(4)=   0.000000  celldm(5)=   0.000000  celldm(6)=   0.000000

     crystal axes: (cart. coord. in units of alat)
               a(1) = (   0.865734   0.500504   0.000000 )  
               a(2) = (   0.865734  -0.500504   0.000000 )  
               a(3) = (   0.000000   0.000000   3.176676 )  

     reciprocal axes: (cart. coord. in units 2 pi/alat)
               b(1) = (  0.577544  0.998993  0.000000 )  
               b(2) = (  0.577544 -0.998993  0.000000 )  
               b(3) = (  0.000000  0.000000  0.314794 )  


     PseudoPot. # 1 for Al read from file:
     /home/mainadmin/research/danu/pseudo/Al.pbe-n-kjpaw_psl.1.0.0.UPF
     MD5 check sum: 502b6b27b9c6270cab5dd1084b96fa6d
     Pseudo is Projector augmented-wave + core cor, Zval =  3.0
     Generated using &quot;atomic&quot; code by A. Dal Corso  v.6.3
     Shape of augmentation charge: PSQ
     Using radial grid of 1135 points,  6 beta functions with: 
                l(1) =   0
                l(2) =   0
                l(3) =   1
                l(4) =   1
                l(5) =   2
                l(6) =   2
     Q(r) pseudized with 0 coefficients 


     PseudoPot. # 2 for O  read from file:
     /home/mainadmin/research/danu/pseudo/O.pbe-n-kjpaw_psl.1.0.0.UPF
     MD5 check sum: e99d9cef9b487d1ca56f5b95ecd0fd7a
     Pseudo is Projector augmented-wave + core cor, Zval =  6.0
     Generated using &quot;atomic&quot; code by A. Dal Corso  v.6.3
     Shape of augmentation charge: PSQ
     Using radial grid of 1095 points,  4 beta functions with: 
                l(1) =   0
                l(2) =   0
                l(3) =   1
                l(4) =   1
     Q(r) pseudized with 0 coefficients 


     atomic species   valence    mass     pseudopotential
        Al             3.00    26.98100     Al( 1.00)
        O              6.00    15.99900     O ( 1.00)

      2 Sym. Ops. (no inversion) found



   Cartesian axes

     site n.     atom                  positions (alat units)
         1           O   tau(   1) = (   1.1543123   0.0000000   0.0000000  )
         2           Al  tau(   2) = (   0.5771561   0.0000000   0.1388849  )
         3           Al  tau(   3) = (   0.5771561   0.0000000   0.9431093  )
         4           O   tau(   4) = (   1.1543123   0.0000000   1.0826196  )
         5           O   tau(   5) = (   0.5771561   0.0000000   1.5876808  )
         6           Al  tau(   6) = (   1.1543123   0.0000000   1.7269053  )
         7           Al  tau(   7) = (   1.1543123   0.0000000   2.5314760  )
         8           O   tau(   8) = (   0.5771561   0.0000000   2.6710808  )

     number of k points=    91
                       cart. coord. in units 2pi/alat
        k(    1) = (   0.0000000   0.0000000   0.0000000), wk =   0.0219780
        k(    2) = (   0.0192515   0.0110848   0.0000000), wk =   0.0219780
        k(    3) = (   0.0385030   0.0221697   0.0000000), wk =   0.0219780
        k(    4) = (   0.0577544   0.0332545   0.0000000), wk =   0.0219780
        k(    5) = (   0.0770059   0.0443393   0.0000000), wk =   0.0219780
        k(    6) = (   0.0962574   0.0554241   0.0000000), wk =   0.0219780
        k(    7) = (   0.1155089   0.0665090   0.0000000), wk =   0.0219780
        k(    8) = (   0.1347604   0.0775938   0.0000000), wk =   0.0219780
        k(    9) = (   0.1540119   0.0886786   0.0000000), wk =   0.0219780
        k(   10) = (   0.1732633   0.0997634   0.0000000), wk =   0.0219780
        k(   11) = (   0.1925148   0.1108483   0.0000000), wk =   0.0219780
        k(   12) = (   0.2117663   0.1219331   0.0000000), wk =   0.0219780
        k(   13) = (   0.2310178   0.1330179   0.0000000), wk =   0.0219780
        k(   14) = (   0.2502693   0.1441027   0.0000000), wk =   0.0219780
        k(   15) = (   0.2695208   0.1551876   0.0000000), wk =   0.0219780
        k(   16) = (   0.2887722   0.1662724   0.0000000), wk =   0.0219780
        k(   17) = (   0.3080237   0.1773572   0.0000000), wk =   0.0219780
        k(   18) = (   0.3272752   0.1884420   0.0000000), wk =   0.0219780
        k(   19) = (   0.3465267   0.1995269   0.0000000), wk =   0.0219780
        k(   20) = (   0.3657782   0.2106117   0.0000000), wk =   0.0219780
        k(   21) = (   0.3850296   0.2216965   0.0000000), wk =   0.0219780
        k(   22) = (   0.4042811   0.2327813   0.0000000), wk =   0.0219780
        k(   23) = (   0.4235326   0.2438662   0.0000000), wk =   0.0219780
        k(   24) = (   0.4427841   0.2549510   0.0000000), wk =   0.0219780
        k(   25) = (   0.4620356   0.2660358   0.0000000), wk =   0.0219780
        k(   26) = (   0.4812871   0.2771206   0.0000000), wk =   0.0219780
        k(   27) = (   0.5005385   0.2882055   0.0000000), wk =   0.0219780
        k(   28) = (   0.5197900   0.2992903   0.0000000), wk =   0.0219780
        k(   29) = (   0.5390415   0.3103751   0.0000000), wk =   0.0219780
        k(   30) = (   0.5582930   0.3214599   0.0000000), wk =   0.0219780
        k(   31) = (   0.5775445   0.3325448   0.0000000), wk =   0.0219780
        k(   32) = (   0.5775445   0.3214599   0.0000000), wk =   0.0219780
        k(   33) = (   0.5775445   0.3103751   0.0000000), wk =   0.0219780
        k(   34) = (   0.5775445   0.2992903   0.0000000), wk =   0.0219780
        k(   35) = (   0.5775445   0.2882055   0.0000000), wk =   0.0219780
        k(   36) = (   0.5775445   0.2771206   0.0000000), wk =   0.0219780
        k(   37) = (   0.5775445   0.2660358   0.0000000), wk =   0.0219780
        k(   38) = (   0.5775445   0.2549510   0.0000000), wk =   0.0219780
        k(   39) = (   0.5775445   0.2438662   0.0000000), wk =   0.0219780
        k(   40) = (   0.5775445   0.2327813   0.0000000), wk =   0.0219780
        k(   41) = (   0.5775445   0.2216965   0.0000000), wk =   0.0219780
        k(   42) = (   0.5775445   0.2106117   0.0000000), wk =   0.0219780
        k(   43) = (   0.5775445   0.1995269   0.0000000), wk =   0.0219780
        k(   44) = (   0.5775445   0.1884420   0.0000000), wk =   0.0219780
        k(   45) = (   0.5775445   0.1773572   0.0000000), wk =   0.0219780
        k(   46) = (   0.5775445   0.1662724   0.0000000), wk =   0.0219780
        k(   47) = (   0.5775445   0.1551876   0.0000000), wk =   0.0219780
        k(   48) = (   0.5775445   0.1441027   0.0000000), wk =   0.0219780
        k(   49) = (   0.5775445   0.1330179   0.0000000), wk =   0.0219780
        k(   50) = (   0.5775445   0.1219331   0.0000000), wk =   0.0219780
        k(   51) = (   0.5775445   0.1108483   0.0000000), wk =   0.0219780
        k(   52) = (   0.5775445   0.0997634   0.0000000), wk =   0.0219780
        k(   53) = (   0.5775445   0.0886786   0.0000000), wk =   0.0219780
        k(   54) = (   0.5775445   0.0775938   0.0000000), wk =   0.0219780
        k(   55) = (   0.5775445   0.0665090   0.0000000), wk =   0.0219780
        k(   56) = (   0.5775445   0.0554241   0.0000000), wk =   0.0219780
        k(   57) = (   0.5775445   0.0443393   0.0000000), wk =   0.0219780
        k(   58) = (   0.5775445   0.0332545   0.0000000), wk =   0.0219780
        k(   59) = (   0.5775445   0.0221697   0.0000000), wk =   0.0219780
        k(   60) = (   0.5775445   0.0110848   0.0000000), wk =   0.0219780
        k(   61) = (   0.5775445   0.0000000   0.0000000), wk =   0.0219780
        k(   62) = (   0.5582930   0.0000000   0.0000000), wk =   0.0219780
        k(   63) = (   0.5390415   0.0000000   0.0000000), wk =   0.0219780
        k(   64) = (   0.5197900   0.0000000   0.0000000), wk =   0.0219780
        k(   65) = (   0.5005385   0.0000000   0.0000000), wk =   0.0219780
        k(   66) = (   0.4812871   0.0000000   0.0000000), wk =   0.0219780
        k(   67) = (   0.4620356   0.0000000   0.0000000), wk =   0.0219780
        k(   68) = (   0.4427841   0.0000000   0.0000000), wk =   0.0219780
        k(   69) = (   0.4235326   0.0000000   0.0000000), wk =   0.0219780
        k(   70) = (   0.4042811   0.0000000   0.0000000), wk =   0.0219780
        k(   71) = (   0.3850296   0.0000000   0.0000000), wk =   0.0219780
        k(   72) = (   0.3657782   0.0000000   0.0000000), wk =   0.0219780
        k(   73) = (   0.3465267   0.0000000   0.0000000), wk =   0.0219780
        k(   74) = (   0.3272752   0.0000000   0.0000000), wk =   0.0219780
        k(   75) = (   0.3080237   0.0000000   0.0000000), wk =   0.0219780
        k(   76) = (   0.2887722   0.0000000   0.0000000), wk =   0.0219780
        k(   77) = (   0.2695208   0.0000000   0.0000000), wk =   0.0219780
        k(   78) = (   0.2502693   0.0000000   0.0000000), wk =   0.0219780
        k(   79) = (   0.2310178   0.0000000   0.0000000), wk =   0.0219780
        k(   80) = (   0.2117663   0.0000000   0.0000000), wk =   0.0219780
        k(   81) = (   0.1925148   0.0000000   0.0000000), wk =   0.0219780
        k(   82) = (   0.1732633   0.0000000   0.0000000), wk =   0.0219780
        k(   83) = (   0.1540119   0.0000000   0.0000000), wk =   0.0219780
        k(   84) = (   0.1347604   0.0000000   0.0000000), wk =   0.0219780
        k(   85) = (   0.1155089   0.0000000   0.0000000), wk =   0.0219780
        k(   86) = (   0.0962574   0.0000000   0.0000000), wk =   0.0219780
        k(   87) = (   0.0770059   0.0000000   0.0000000), wk =   0.0219780
        k(   88) = (   0.0577544   0.0000000   0.0000000), wk =   0.0219780
        k(   89) = (   0.0385030   0.0000000   0.0000000), wk =   0.0219780
        k(   90) = (   0.0192515   0.0000000   0.0000000), wk =   0.0219780
        k(   91) = (   0.0000000   0.0000000   0.0000000), wk =   0.0219780

     Dense  grid:    39849 G-vectors     FFT dimensions: (  32,  32, 100)

     Estimated max dynamical RAM per process >      11.45 MB

     Estimated total dynamical RAM >     183.12 MB

     Check: negative core charge=   -0.000006

     The potential is recalculated from file :
     ./work/Al2O2.save/charge-density



     %%%%%%%%%%%%%%%%%%%%%%%%%%%%%%%%%%%%%%%%%%%%%%%%%%%%%%%%%%%%%%%%%%%%%%%%
     %                                                                      %
     % You are using vdW-DF, which was implemented by the Thonhauser group. %
     % Please cite the following two papers that made this development      %
     % possible and the two reviews that describe the various versions:     %
     %                                                                      %
     %   T. Thonhauser et al., PRL 115, 136402 (2015).                      %
     %   T. Thonhauser et al., PRB 76, 125112 (2007).                       %
     %   K. Berland et al., Rep. Prog. Phys. 78, 066501 (2015).             %
     %   D.C. Langreth et al., J. Phys.: Condens. Matter 21, 084203 (2009). %
     %                                                                      %
     % If you are calculating stress with vdW-DF, please also cite:         %
     %                                                                      %
     %   R. Sabatini et al., J. Phys.: Condens. Matter 24, 424209 (2012).   %
     %                                                                      %
     %%%%%%%%%%%%%%%%%%%%%%%%%%%%%%%%%%%%%%%%%%%%%%%%%%%%%%%%%%%%%%%%%%%%%%%%

     %%%%%%%%%%%%%%%%%%%%%%%%%%%%%%%%%%%%%%%%%%%%%%%%%%%%%%%%%%%%%%%%%%%%%%%%
     %                                                                      %
     %  vdW-DF NEWS:                                                        %
     %                                                                      %
     %  * vdW-DF3 is now available. DOI: 10.1021/acs.jctc.0c00471           %
     %    use with input_dft = 'vdW-DF3-opt1' or 'vdW-DF3-opt2'             %
     %                                                                      %
     %  * Unscreened and range-separated vdW-DF hybrid functionals          %
     %    DOI: 10.1063/1.4986522 and 10.1088/1361-648X/ac2ad2               %
     %    use with input_dft = 'vdW-DF-cx0' (etc) and 'vdW-DF-ahcx'         %
     %                                                                      %
     %%%%%%%%%%%%%%%%%%%%%%%%%%%%%%%%%%%%%%%%%%%%%%%%%%%%%%%%%%%%%%%%%%%%%%%%


     Starting wfcs are   32 randomized atomic wfcs +   38 random wfcs
     Checking if some PAW data can be deallocated... 

     Band Structure Calculation
     Davidson diagonalization with overlap
     c_bands:  1 eigenvalues not converged
     c_bands:  1 eigenvalues not converged
     c_bands:  1 eigenvalues not converged
     c_bands:  1 eigenvalues not converged

     ethr =  2.78E-11,  avg # of iterations = 68.0

     total cpu time spent up to now is      182.8 secs

     End of band structure calculation

          k = 0.0000 0.0000 0.0000 (  4975 PWs)   bands (ev):

   -13.4540 -13.3890 -11.5865 -11.4807   0.1685   1.1488   1.3781   2.0317
     2.0346   2.0749   2.0777   3.1173   3.1402   3.1439   3.1987   3.2024
     4.8900   7.0468   8.8853  11.3965  12.3138  13.0359  15.2978  15.3183
    16.2793  16.3004  16.4893  16.5103  17.8757  17.9726  17.9949  18.2961
    19.8491  20.0528  20.0718  20.6031  21.2725  21.2913  22.8160  22.8420
    23.3245  23.6297  24.7295  24.7442  24.9582  24.9849  25.3648  25.8913
    26.1941  26.8619  26.8866  27.5326  27.5539  28.4906  28.9475  28.9806
    29.5764  30.8214  33.0723  33.1006  33.9009  34.4173  34.5583  34.5982
    36.7752  36.8076  37.3036  37.3110  37.3270  38.1166

          k = 0.0193 0.0111 0.0000 (  4997 PWs)   bands (ev):

   -13.4512 -13.3862 -11.5860 -11.4804   0.1727   1.1262   1.3778   2.0282
     2.0482   2.0533   2.0716   3.1149   3.1387   3.1416   3.1910   3.2013
     4.9167   7.0443   8.9037  11.4012  12.3132  13.0447  15.2924  15.3124
    16.2445  16.2897  16.4731  16.5068  17.7974  17.9866  18.0606  18.3086
    19.8810  20.0309  20.0546  20.5998  21.2212  21.2786  22.8487  22.8706
    23.3464  23.6977  24.7001  24.7137  24.9522  24.9868  25.4101  25.9189
    26.2174  26.8542  26.8772  27.5498  27.5787  28.5250  28.9504  28.9794
    29.5854  30.8469  33.0075  33.0782  33.9195  34.5045  34.5496  34.5852
    36.7644  36.7945  37.2594  37.2871  37.2974  38.0667

          k = 0.0385 0.0222 0.0000 (  5001 PWs)   bands (ev):

   -13.4426 -13.3778 -11.5845 -11.4796   0.1853   1.0639   1.3766   1.9695
     2.0154   2.0593   2.1062   3.0370   3.1426   3.1615   3.1803   3.2209
     4.9916   7.0370   8.9581  11.4154  12.3109  13.0708  15.2530  15.3192
    16.1096  16.2964  16.3915  16.5335  17.6754  18.0141  18.1594  18.3425
    19.8699  19.9577  20.1101  20.5980  21.0530  21.2763  22.9295  22.9705
    23.4111  23.8724  24.6155  24.6287  24.8952  25.0382  25.5423  25.9979
    26.2878  26.8294  26.8504  27.5681  27.6839  28.6242  28.9465  28.9882
    29.6125  30.9197  32.8035  33.0668  33.9758  34.5141  34.5512  34.7254
    36.7290  36.7575  37.1378  37.1911  37.2495  37.9722

          k = 0.0578 0.0333 0.0000 (  5003 PWs)   bands (ev):

   -13.4285 -13.3639 -11.5822 -11.4782   0.2061   0.9732   1.3739   1.8558
     1.9928   2.0383   2.1816   2.9221   3.1162   3.1443   3.1869   3.2983
     5.1029   7.0249   9.0465  11.4389  12.3054  13.1135  15.1881  15.3311
    15.9113  16.2651  16.3053  16.5795  17.5459  18.0584  18.2536  18.3884
    19.7477  19.8216  20.3060  20.6005  20.8373  21.2702  23.0561  23.1309
    23.5152  24.0953  24.4867  24.5014  24.8075  25.1369  25.7525  26.1201
    26.4063  26.7839  26.8117  27.5993  27.8497  28.7784  28.9275  29.0146
    29.6589  31.0297  32.5425  33.0501  34.0708  34.4441  34.5135  35.0066
    36.6649  36.6986  36.9621  37.0773  37.1596  37.9277

          k = 0.0770 0.0443 0.0000 (  5019 PWs)   bands (ev):

   -13.4087 -13.3446 -11.5792 -11.4764   0.2350   0.8647   1.3684   1.7206
     1.9584   2.0081   2.2696   2.7851   3.0596   3.1463   3.1843   3.3951
     5.2381   7.0083   9.1656  11.4716  12.2945  13.1714  15.1088  15.3227
    15.6942  16.1079  16.3105  16.6402  17.4161  18.1183  18.3401  18.4366
    19.5883  19.6306  20.4998  20.5551  20.7283  21.2610  23.2296  23.3290
    23.6528  24.3165  24.3203  24.3507  24.7064  25.2885  26.0287  26.2762
    26.5740  26.7243  26.7638  27.6460  28.0594  28.9035  28.9747  29.0496
    29.7254  31.1628  32.2608  33.0266  34.2058  34.3441  34.4700  35.3124
    36.5757  36.6090  36.7553  36.9699  37.0452  37.9445

          k = 0.0963 0.0554 0.0000 (  5013 PWs)   bands (ev):

   -13.3836 -13.3199 -11.5755 -11.4744   0.2715   0.7458   1.3580   1.5734
     1.9085   1.9681   2.3633   2.6402   2.9976   3.1484   3.1792   3.4954
     5.3876   6.9878   9.3115  11.5133  12.2753  13.2425  15.0229  15.2100
    15.5591  15.9314  16.3073  16.7075  17.2957  18.1917  18.4187  18.4799
    19.3897  19.4264  20.2741  20.7743  20.8053  21.2658  23.4446  23.5471
    23.8150  24.1215  24.1928  24.5098  24.6090  25.4917  26.3585  26.4523
    26.6662  26.7111  26.7916  27.7053  28.2985  28.8832  29.0885  29.2009
    29.8127  31.3027  31.9745  32.9958  34.2228  34.3818  34.4204  35.6160
    36.4617  36.4875  36.5357  36.8899  36.9363  38.0064

          k = 0.1155 0.0665 0.0000 (  5009 PWs)   bands (ev):

   -13.3532 -13.2901 -11.5714 -11.4723   0.3151   0.6215   1.3401   1.4203
     1.8385   1.9188   2.4583   2.4998   2.9366   3.1504   3.1718   3.5930
     5.5446   6.9638   9.4802  11.5638  12.2450  13.3230  14.9365  14.9661
    15.5457  15.7448  16.2919  16.7591  17.2077  18.2736  18.4898  18.5172
    19.1254  19.2627  20.0575  20.8565  20.9649  21.3559  23.6932  23.7665
    23.8997  23.9897  24.0362  24.5362  24.6743  25.7300  26.5666  26.6310
    26.7216  26.7305  27.0581  27.7732  28.5527  28.8790  29.1282  29.4462
    29.9191  31.4341  31.6917  32.9583  34.0881  34.3672  34.5981  35.8800
    36.3055  36.3179  36.3669  36.8450  36.8727  38.0958

          k = 0.1348 0.0776 0.0000 (  5015 PWs)   bands (ev):

   -13.3177 -13.2553 -11.5672 -11.4704   0.3651   0.4952   1.2656   1.3109
     1.7436   1.8619   2.3741   2.5515   2.8821   3.1524   3.1622   3.6845
     5.7046   6.9370   9.6676  11.6230  12.2011  13.4059  14.6856  14.8550
    15.5549  15.5685  16.2618  16.7504  17.1971  18.3512  18.5500  18.5611
    18.8404  19.1173  19.8776  20.9549  20.9778  21.5743  23.6628  23.8863
    23.9514  23.9668  24.1609  24.5276  24.8240  25.9806  26.5110  26.6344
    26.8932  27.1332  27.3706  27.8458  28.7921  28.9246  29.1670  29.7018
    30.0387  31.4175  31.5434  32.9159  33.9495  34.3141  34.8497  36.0447
    36.1157  36.1284  36.2546  36.7666  36.9774  38.1988

          k = 0.1540 0.0887 0.0000 (  5009 PWs)   bands (ev):

   -13.2774 -13.2157 -11.5631 -11.4689   0.3697   0.4204   1.1123   1.2661
     1.6228   1.8007   2.2689   2.6395   2.8385   3.1487   3.1565   3.7677
     5.8645   6.9086   9.8699  11.6905  12.1420  13.4748  14.4200  14.7778
    15.3673  15.5942  16.2161  16.6694  17.2757  18.3969  18.5476  18.6134
    18.6231  18.9962  19.7433  20.9257  21.0656  21.8299  23.4156  23.7487
    24.0485  24.2481  24.3117  24.6433  24.9755  26.2269  26.4198  26.6960
    27.0719  27.5562  27.7241  27.9204  28.9246  29.1220  29.2037  29.9607
    30.1579  31.1556  31.6209  32.8741  33.8186  34.2656  35.1225  35.9412
    35.9528  36.0889  36.1627  36.6943  37.2262  38.3040

          k = 0.1733 0.0998 0.0000 (  5005 PWs)   bands (ev):

   -13.2325 -13.1717 -11.5595 -11.4680   0.2471   0.4789   0.9628   1.2021
     1.4815   1.7394   2.1831   2.7187   2.8083   3.1332   3.1623   3.8416
     6.0226   6.8796  10.0835  11.7664  12.0673  13.4870  14.2207  14.7040
    15.1861  15.6113  16.1557  16.5534  17.4049  18.2576  18.3967  18.6750
    18.7217  18.9049  19.6576  20.8519  21.1857  22.0774  23.1631  23.6261
    24.0619  24.4286  24.5214  24.8782  25.1443  26.3174  26.4629  26.8299
    27.2124  27.9891  27.9949  28.1118  29.0601  29.2367  29.3742  30.2150
    30.2546  30.9111  31.6605  32.8413  33.7113  34.2271  35.3773  35.7909
    35.8084  36.0630  36.1298  36.6245  37.5674  38.4009

          k = 0.1925 0.1108 0.0000 (  5011 PWs)   bands (ev):

   -13.1833 -13.1235 -11.5566 -11.4680   0.1292   0.5377   0.8192   1.1176
     1.3292   1.6810   2.1122   2.7834   2.7925   3.1138   3.1751   3.9055
     6.1775   6.8514  10.3054  11.8503  11.9779  13.3783  14.1557  14.6292
    15.0147  15.6131  16.0834  16.4262  17.5590  17.9803  18.3639  18.7309
    18.8456  18.8469  19.6197  20.7711  21.3145  22.3047  22.9092  23.5207
    24.0465  24.5078  24.7641  25.1760  25.3418  26.2098  26.6920  27.0375
    27.2969  28.0670  28.4231  28.5252  29.2563  29.2767  29.6179  30.2961
    30.4415  30.7092  31.6606  32.8213  33.6540  34.2044  35.5293  35.6520
    35.7279  36.0132  36.2371  36.5560  37.9532  38.4813

          k = 0.2118 0.1219 0.0000 (  5007 PWs)   bands (ev):

   -13.1302 -13.0714 -11.5548 -11.4694   0.0176   0.5901   0.6829   1.0148
     1.1781   1.6256   2.0519   2.7907   2.8275   3.0902   3.1997   3.9595
     6.3284   6.8256  10.5327  11.8757  11.9423  13.1629  14.2127  14.5482
    14.8558  15.5956  16.0017  16.2969  17.7251  17.7265  18.3096  18.7860
    18.8184  18.9809  19.6261  20.6932  21.4511  22.5099  22.6575  23.4341
    24.0263  24.5552  24.9660  25.5057  25.5630  26.1014  26.9250  27.3068
    27.3248  28.1371  28.8486  28.9546  29.2954  29.5415  29.8444  30.2605
    30.4054  30.7824  31.6239  32.7981  33.6881  34.2043  35.5337  35.5606
    35.7087  35.9605  36.4877  36.5051  38.3548  38.5312

          k = 0.2310 0.1330 0.0000 (  5001 PWs)   bands (ev):

   -13.0735 -13.0158 -11.5544 -11.4722  -0.0863   0.5554   0.6210   0.8982
     1.0465   1.5714   2.0003   2.8024   2.8466   3.0621   3.2388   4.0037
     6.4747   6.8038  10.7629  11.7630  12.0423  12.9048  14.3276  14.4564
    14.7117  15.5582  15.9114  16.1692  17.5032  17.8990  18.2392  18.8166
    18.8422  19.1158  19.6717  20.6280  21.5949  22.4116  22.6954  23.3667
    24.0071  24.5819  25.1343  25.7806  25.8541  25.9968  27.1758  27.3054
    27.6131  28.2105  29.2567  29.3258  29.3893  29.8602  30.0582  30.1409
    30.2204  31.0210  31.5576  32.7450  33.8497  34.2339  35.4574  35.5307
    35.7553  35.9141  36.4240  36.8428  38.4436  38.5784

          k = 0.2503 0.1441 0.0000 (  5003 PWs)   bands (ev):

   -13.0137 -12.9571 -11.5558 -11.4769  -0.1813   0.4379   0.5993   0.7732
     0.9659   1.5160   1.9579   2.8262   2.8419   3.0291   3.2896   4.0387
     6.6161   6.7880  10.9937  11.6423  12.1501  12.6372  14.3512  14.4662
    14.5844  15.5036  15.8098  16.0451  17.3239  18.0716  18.1565  18.8326
    18.8992  19.2437  19.7503  20.5854  21.7454  22.1759  22.8650  23.3189
    23.9887  24.5996  25.2809  25.9013  25.9720  26.2067  27.2531  27.4530
    27.8948  28.3217  29.3635  29.6232  29.8163  29.9702  30.0409  30.1277
    30.3333  31.2752  31.4733  32.6598  34.1312  34.3006  35.4084  35.4985
    35.8659  35.8793  36.3651  37.1928  38.3092  38.5971

          k = 0.2695 0.1552 0.0000 (  5013 PWs)   bands (ev):

   -12.9512 -12.8957 -11.5593 -11.4837  -0.2662   0.3312   0.5098   0.6445
     0.9492   1.4573   1.9277   2.8180   2.8609   2.9910   3.3462   4.0650
     6.7520   6.7803  11.2229  11.5156  12.2658  12.3727  14.2339  14.4754
    14.6099  15.4400  15.6929  15.9255  17.1958  18.0643  18.2390  18.8542
    18.9575  19.3556  19.8548  20.5742  21.9018  21.9551  23.0228  23.2903
    23.9700  24.6174  25.4130  25.8201  26.1239  26.5555  27.1783  27.7510
    28.0397  28.5521  29.4216  29.6428  29.8762  30.0745  30.2263  30.2765
    30.7193  31.3860  31.5397  32.5610  34.4066  34.4967  35.3844  35.4732
    35.8569  36.0331  36.3174  37.5245  38.1360  38.6006

          k = 0.2888 0.1663 0.0000 (  5005 PWs)   bands (ev):

   -12.8863 -12.8320 -11.5652 -11.4929  -0.3402   0.2363   0.3852   0.5162
     0.9598   1.3940   1.9145   2.7796   2.9050   2.9477   3.4026   4.0835
     6.7811   6.8833  11.3848  11.4484  12.1171  12.3893  14.1072  14.3864
    14.7378  15.3863  15.5590  15.8112  17.1213  17.9660  18.3965  18.8710
    19.0156  19.4417  19.9781  20.6001  21.7553  22.0631  23.1718  23.2804
    23.9504  24.6416  25.5328  25.7584  26.2398  26.8917  27.0898  28.0457
    28.0540  28.8476  29.3941  29.5310  29.7322  30.3691  30.4101  30.6012
    31.1411  31.3135  31.8183  32.4682  34.5585  34.8904  35.3726  35.4557
    35.8497  36.2379  36.2905  37.8206  37.9605  38.5925

          k = 0.3080 0.1774 0.0000 (  4997 PWs)   bands (ev):

   -12.8197 -12.7666 -11.5737 -11.5046  -0.4026   0.1537   0.2527   0.3914
     0.9657   1.3256   1.9236   2.7298   2.8993   2.9571   3.4548   4.0949
     6.7937   7.0083  11.2514  11.6678  11.8734  12.5203  13.9758  14.3189
    14.8109  15.3819  15.4119  15.7025  17.0962  17.8641  18.5410  18.8764
    19.0706  19.4907  20.1126  20.6624  21.5830  22.2284  23.2881  23.3138
    23.9314  24.6763  25.6397  25.7201  26.3292  26.9949  27.2085  27.9989
    28.2829  29.0808  29.1626  29.6090  29.7417  30.4230  30.7475  30.9327
    31.2736  31.5728  32.1148  32.3978  34.7381  35.2462  35.3536  35.4421
    35.8622  36.2974  36.4584  37.8573  38.0732  38.5469

          k = 0.3273 0.1884 0.0000 (  4979 PWs)   bands (ev):

   -12.7518 -12.6998 -11.5851 -11.5190  -0.4527   0.0839   0.1235   0.2726
     0.9529   1.2518   1.9583   2.6706   2.8460   3.0157   3.4998   4.1000
     6.8185   7.1273  11.1165  11.6438  11.8789  12.6588  13.8441  14.2743
    14.7925  15.2568  15.4667  15.5999  17.1115  17.7615  18.6706  18.8692
    19.1183  19.4925  20.2500  20.7535  21.4436  22.3966  23.3127  23.4478
    23.9178  24.7235  25.7068  25.7326  26.4022  26.9019  27.5009  27.8950
    28.3432  29.0733  29.2213  29.5086  30.0479  30.4455  31.0820  31.2146
    31.2867  31.9997  32.3624  32.4324  34.9016  35.3071  35.4256  35.4474
    35.9158  36.3494  36.7014  37.9167  38.2421  38.2691

          k = 0.3465 0.1995 0.0000 (  4975 PWs)   bands (ev):

   -12.6832 -12.6323 -11.5995 -11.5364  -0.4902   0.0026   0.0272   0.1618
     0.9176   1.1728   2.0180   2.6039   2.7883   3.0796   3.5356   4.0994
     6.8565   7.2398  10.9809  11.4298  12.0789  12.8042  13.7160  14.2537
    14.7024  15.1040  15.5035  15.6204  17.1570  17.6608  18.7824  18.8527
    19.1561  19.4417  20.3815  20.8595  21.3381  22.5668  23.3532  23.5678
    23.9210  24.7832  25.7158  25.8103  26.4660  26.8217  27.7534  27.7664
    28.1848  29.1642  29.3170  29.4326  30.3711  30.4436  31.3742  31.4171
    31.4470  32.3763  32.4094  32.7658  34.9668  35.2214  35.3964  35.4051
    36.0556  36.4472  37.0046  38.0403  38.1025  38.1626

          k = 0.3658 0.2106 0.0000 (  4977 PWs)   bands (ev):

   -12.6143 -12.5646 -11.6170 -11.5566  -0.5149  -0.1077  -0.0166   0.0605
     0.8616   1.0891   2.0987   2.5310   2.7268   3.1474   3.5608   4.0939
     6.9078   7.3455  10.8459  11.2324  12.2654  12.9561  13.5944  14.2584
    14.5760  14.9598  15.4139  15.8096  17.2238  17.5648  18.8321  18.8689
    19.1876  19.3400  20.4973  20.9632  21.2608  22.7385  23.4089  23.6610
    23.9611  24.8539  25.7361  25.8748  26.5240  26.7702  27.5859  27.9477
    28.0065  29.2951  29.3830  29.4023  30.4223  30.6504  31.5551  31.6310
    31.7515  32.4463  32.7878  33.1057  34.8882  35.0948  35.1776  35.3415
    36.2930  36.5815  37.3181  37.8483  37.9908  38.4905

          k = 0.3850 0.2217 0.0000 (  4976 PWs)   bands (ev):

   -12.5458 -12.4970 -11.6376 -11.5798  -0.5269  -0.2057  -0.0474  -0.0297
     0.7889   1.0012   2.1952   2.4535   2.6624   3.2179   3.5746   4.0840
     6.9720   7.4435  10.7126  11.0529  12.4359  13.1138  13.4815  14.2887
    14.4316  14.8296  15.3313  16.0172  17.3049  17.4760  18.8128  18.9112
    19.1953  19.2294  20.5869  21.0466  21.2007  22.9119  23.4790  23.7230
    24.0510  24.9320  25.7487  25.9312  26.5754  26.7692  27.4052  27.7145
    28.2161  29.3597  29.4006  29.4917  30.3904  30.8673  31.7773  31.8178
    32.0630  32.5778  33.1196  33.4146  34.7296  34.8678  34.9296  35.2460
    36.5677  36.7408  37.5303  37.6616  38.1158  38.4805

          k = 0.4043 0.2328 0.0000 (  4960 PWs)   bands (ev):

   -12.4781 -12.4303 -11.6613 -11.6059  -0.5265  -0.2901  -0.1082  -0.0654
     0.7035   0.9098   2.3024   2.3731   2.5961   3.2900   3.5769   4.0701
     7.0477   7.5332  10.5826  10.8922  12.5886  13.2760  13.3785  14.2776
    14.3440  14.7172  15.2562  16.2351  17.3919  17.3994  18.7994  18.8925
    19.0190  19.2982  20.6407  21.0935  21.1456  23.0884  23.5631  23.7760
    24.1765  25.0121  25.7335  25.9866  26.6153  26.8377  27.2242  27.5069
    28.3997  29.3655  29.4709  29.5931  30.3535  31.0465  31.8919  32.1160
    32.3240  32.7579  33.3902  33.5832  34.5559  34.6527  34.7287  35.0986
    36.8210  36.9180  37.5486  37.5650  38.3963  38.5114

          k = 0.4235 0.2439 0.0000 (  4956 PWs)   bands (ev):

   -12.4117 -12.3647 -11.6881 -11.6347  -0.5143  -0.3602  -0.1738  -0.0717
     0.6089   0.8158   2.2913   2.4159   2.5293   3.3623   3.5678   4.0528
     7.1330   7.6135  10.4577  10.7512  12.7225  13.2864  13.4411  14.1188
    14.4223  14.6248  15.1889  16.4585  17.3293  17.4881  18.7957  18.8174
    18.8231  19.3901  20.6510  21.0856  21.0927  23.2697  23.6607  23.8425
    24.3203  25.0870  25.6840  26.0479  26.6351  26.9781  27.0543  27.3404
    28.5541  29.3977  29.5160  29.7119  30.3183  31.2128  31.9814  32.4028
    32.5071  32.9271  33.4899  33.5877  34.3298  34.4969  34.8213  34.8988
    37.0334  37.1119  37.3763  37.5685  38.5984  38.7608

          k = 0.4428 0.2550 0.0000 (  4966 PWs)   bands (ev):

   -12.3471 -12.3009 -11.7177 -11.6661  -0.4913  -0.4154  -0.2261  -0.0669
     0.5078   0.7200   2.2101   2.4633   2.5322   3.4340   3.5481   4.0322
     7.2252   7.6832  10.3401  10.6309  12.8380  13.2062  13.6070  13.9585
    14.5191  14.5531  15.1302  16.6831  17.2763  17.5811  18.6115  18.7045
    18.8072  19.4946  20.6147  21.0148  21.0398  23.4579  23.7713  23.9313
    24.4736  25.1483  25.6081  26.1151  26.6260  26.9049  27.1754  27.2277
    28.6732  29.4539  29.5473  29.8520  30.2925  31.3780  32.0505  32.5319
    32.6450  33.0600  33.2477  33.7023  34.2460  34.2750  34.6597  35.1552
    37.1172  37.2039  37.3241  37.6682  38.7426  38.8881

          k = 0.4620 0.2660 0.0000 (  4966 PWs)   bands (ev):

   -12.2849 -12.2393 -11.7499 -11.6999  -0.4587  -0.4552  -0.2648  -0.0522
     0.4025   0.6235   2.1316   2.3998   2.6484   3.5036   3.5189   4.0089
     7.3210   7.7410  10.2323  10.5321  12.9364  13.1389  13.7704  13.7996
    14.5015  14.6285  15.0812  16.9042  17.2395  17.6694  18.3978  18.5612
    18.8366  19.6054  20.5347  20.9308  20.9373  23.6543  23.8944  24.0414
    24.6318  25.1875  25.5172  26.1670  26.6016  26.7838  27.1740  27.4071
    28.7453  29.5308  29.5744  30.0163  30.2850  31.5441  32.1018  32.3267
    32.8176  32.9978  33.2291  33.6993  34.0242  34.3554  34.4050  35.5383
    36.8810  37.3213  37.5534  37.8501  38.8675  38.9351

          k = 0.4813 0.2771 0.0000 (  4968 PWs)   bands (ev):

   -12.2253 -12.1801 -11.7843 -11.7358  -0.4802  -0.4176  -0.2900  -0.0290
     0.2949   0.5275   2.0578   2.3404   2.7617   3.4806   3.5708   3.9830
     7.4167   7.7854  10.1369  10.4552  13.0193  13.0856  13.6451  13.9265
    14.4682  14.7426  15.0435  17.1156  17.2208  17.7484  18.1880  18.3981
    18.8899  19.7196  20.4204  20.7927  20.8342  23.8585  24.0294  24.1675
    24.7909  25.1979  25.4207  26.1417  26.6290  26.6946  27.1676  27.6489
    28.7516  29.6034  29.6271  30.2054  30.3068  31.7079  31.9906  32.1406
    32.8085  32.8980  33.4086  33.5019  33.9288  34.1673  34.4563  35.9158
    36.7413  37.3671  37.7939  38.0933  38.8305  39.1590

          k = 0.5005 0.2882 0.0000 (  4972 PWs)   bands (ev):

   -12.1687 -12.1239 -11.8208 -11.7733  -0.4897  -0.3707  -0.3021   0.0009
     0.1869   0.4335   1.9913   2.2872   2.8699   3.4354   3.6339   3.9549
     7.5084   7.8151  10.0564  10.4000  13.0477  13.0881  13.4982  14.0688
    14.4505  14.8523  15.0193  17.2212  17.3104  17.8128  17.9910  18.2247
    18.9729  19.8350  20.2856  20.6152  20.7274  24.0693  24.1756  24.3033
    24.9461  25.1766  25.3245  26.0097  26.6363  26.7473  27.1889  27.8767
    28.6735  29.6376  29.7434  30.3701  30.4178  31.6152  31.8613  32.1829
    32.7029  32.8680  33.2012  33.5192  33.8919  33.9833  34.5518  36.2348
    36.7245  37.3458  38.0370  38.3707  38.7867  39.0447

          k = 0.5198 0.2993 0.0000 (  4978 PWs)   bands (ev):

   -12.1155 -12.0708 -11.8588 -11.8123  -0.4849  -0.3202  -0.3026   0.0354
     0.0805   0.3435   1.9347   2.2422   2.9707   3.3843   3.6921   3.9250
     7.5926   7.8290   9.9929  10.3654  13.0267  13.1435  13.3629  14.1888
    14.4446  14.9477  15.0114  17.2399  17.4810  17.8181  17.8564  18.0514
    19.0910  19.9499  20.1477  20.4150  20.6143  24.2842  24.3323  24.4439
    25.0910  25.1252  25.2330  25.8065  26.6037  26.9213  27.2260  28.0674
    28.5059  29.6764  29.8807  30.4873  30.6455  31.2445  31.9873  32.2593
    32.6661  32.7417  32.8773  33.4836  33.8544  33.8725  34.7111  36.3832
    36.7971  37.3604  38.2742  38.6481  38.7449  38.8606

          k = 0.5390 0.3104 0.0000 (  4970 PWs)   bands (ev):

   -12.0658 -12.0212 -11.8980 -11.8522  -0.4677  -0.2941  -0.2689  -0.0213
     0.0723   0.2608   1.8909   2.2076   3.0623   3.3286   3.7446   3.8934
     7.6659   7.8264   9.9479  10.3484  13.0241  13.1852  13.2442  14.2777
    14.4465  15.0139  15.0257  17.2709  17.6213  17.6870  17.8723  17.8902
    19.2463  20.0244  20.0628  20.2027  20.4993  24.4971  24.5007  24.5863
    25.0477  25.1495  25.2164  25.5550  26.5888  27.1055  27.2890  28.2044
    28.2652  29.7159  30.0370  30.6591  30.8701  30.9049  32.0496  32.3911
    32.5563  32.5973  32.6672  33.3106  33.8058  33.8257  34.9633  36.2587
    36.8976  37.5424  38.4988  38.6376  38.7112  38.8827

          k = 0.5583 0.3215 0.0000 (  4960 PWs)   bands (ev):

   -12.0199 -11.9752 -11.9380 -11.8927  -0.4436  -0.2817  -0.2199  -0.1124
     0.1091   0.1909   1.8627   2.1854   3.1429   3.2697   3.7904   3.8606
     7.7265   7.8079   9.9217  10.3440  13.0410  13.1481  13.2120  14.3303
    14.4513  15.0383  15.0615  17.2972  17.6241  17.7287  17.7546  17.8569
    19.4289  19.9315  19.9960  20.1722  20.3867  24.6686  24.7046  24.7360
    24.9487  25.0787  25.2644  25.3087  26.5839  27.2057  27.4522  27.9849
    28.2822  29.7479  30.2090  30.6157  30.8647  31.0384  32.0281  32.2663
    32.5327  32.5759  32.6823  33.0709  33.7768  33.7962  35.2749  35.9650
    36.9756  37.8266  38.3887  38.6893  38.7045  38.9490

          k = 0.5775 0.3325 0.0000 (  4948 PWs)   bands (ev):

   -11.9799 -11.9761 -11.9351 -11.9310  -0.4286  -0.2748  -0.1770  -0.1757
     0.1427   0.1441   1.8528   2.1775   3.2074   3.2126   3.8248   3.8306
     7.7709   7.7769   9.9135  10.3448  13.0749  13.0856  13.2221  14.3471
    14.4543  15.0552  15.0686  17.3030  17.6491  17.6609  17.8034  17.8124
    19.5569  19.8765  19.8821  20.2732  20.2841  24.8190  24.8377  24.8530
    24.8753  24.9990  25.0396  25.3461  26.5828  27.2263  27.6914  27.7118
    28.3055  29.7610  30.3890  30.3945  31.0347  31.0415  32.0600  32.0672
    32.5305  32.6747  32.8098  32.8300  33.7685  33.7827  35.6077  35.6275
    37.0029  38.1096  38.1318  38.6819  38.8773  38.9027

          k = 0.5775 0.3215 0.0000 (  4950 PWs)   bands (ev):

   -11.9974 -11.9591 -11.9525 -11.9139  -0.4347  -0.2773  -0.1876  -0.1578
     0.1322   0.1586   1.8555   2.1797   3.1816   3.2365   3.8128   3.8414
     7.7513   7.7936   9.9152  10.3436  13.0582  13.1103  13.2188  14.3429
    14.4529  15.0462  15.0706  17.3039  17.6221  17.7044  17.7708  17.8381
    19.5121  19.8695  19.9450  20.2254  20.3323  24.7034  24.7571  24.8777
    24.9410  25.0608  25.0769  25.3332  26.5834  27.2217  27.5704  27.8437
    28.3008  29.7574  30.3090  30.4859  30.9537  31.0719  32.0311  32.1473
    32.5266  32.6697  32.7004  32.9478  33.7698  33.7879  35.4420  35.7967
    36.9977  37.9761  38.2538  38.6836  38.8020  38.9296

          k = 0.5775 0.3104 0.0000 (  4954 PWs)   bands (ev):

   -12.0172 -11.9726 -11.9404 -11.8951  -0.4532  -0.2855  -0.1821  -0.1413
     0.1305   0.1726   1.8634   2.1859   3.1510   3.2617   3.7954   3.8553
     7.7271   7.8087   9.9207  10.3402  13.0498  13.1424  13.2102  14.3311
    14.4492  15.0282  15.0694  17.3085  17.6093  17.7315  17.7622  17.8583
    19.4270  19.8711  20.0584  20.1797  20.3799  24.5210  24.6876  24.8834
    25.0067  25.1243  25.1774  25.2964  26.5831  27.2102  27.4668  27.9779
    28.2860  29.7492  30.2371  30.5834  30.8344  31.0507  32.0599  32.2629
    32.5151  32.6051  32.6502  33.0714  33.7782  33.7992  35.2886  35.9610
    36.9786  37.8443  38.3463  38.6871  38.7378  38.9730

          k = 0.5775 0.2993 0.0000 (  4950 PWs)   bands (ev):

   -12.0370 -11.9923 -11.9227 -11.8772  -0.4819  -0.2996  -0.1621  -0.1273
     0.1388   0.1850   1.8765   2.1962   3.1205   3.2833   3.7779   3.8670
     7.7002   7.8209   9.9294  10.3337  13.0524  13.1802  13.1959  14.3120
    14.4429  15.0038  15.0631  17.3185  17.6115  17.6900  17.8291  17.8722
    19.3299  19.8824  20.1375  20.1927  20.4255  24.3278  24.6140  24.8708
    25.0710  25.2099  25.2337  25.2802  26.5818  27.1923  27.3844  28.1126
    28.2621  29.7394  30.1735  30.6811  30.6919  30.9845  32.1377  32.4005
    32.4945  32.5279  32.6156  33.1953  33.7958  33.8158  35.1542  36.1135
    36.9491  37.7179  38.4013  38.6723  38.7100  39.0533

          k = 0.5775 0.2882 0.0000 (  4958 PWs)   bands (ev):

   -12.0565 -12.0119 -11.9060 -11.8602  -0.5169  -0.3191  -0.1314  -0.1158
     0.1564   0.1958   1.8949   2.2107   3.0903   3.3012   3.7603   3.8765
     7.6712   7.8302   9.9411  10.3229  13.0667  13.1757  13.2235  14.2857
    14.4334  14.9749  15.0515  17.3349  17.6288  17.6464  17.8798  17.9046
    19.2300  19.9024  20.0994  20.3381  20.4689  24.1268  24.5367  24.8528
    25.1291  25.1495  25.3041  25.3826  26.5789  27.1683  27.3251  28.2303
    28.2455  29.7317  30.1139  30.5348  30.7791  30.8903  32.2441  32.4616
    32.4723  32.5549  32.5639  33.3155  33.8244  33.8376  35.0450  36.2416
    36.9190  37.5999  38.4228  38.6397  38.7198  39.0570

          k = 0.5775 0.2771 0.0000 (  4954 PWs)   bands (ev):

   -12.0758 -12.0312 -11.8901 -11.8441  -0.5551  -0.3427  -0.1070  -0.0931
     0.1822   0.2048   1.9183   2.2293   3.0605   3.3154   3.7426   3.8838
     7.6402   7.8369   9.9553  10.3073  13.0933  13.1494  13.2723  14.2523
    14.4207  14.9432  15.0351  17.3575  17.6026  17.6610  17.8816  17.9864
    19.1310  19.9304  20.0657  20.4911  20.5099  23.9193  24.4556  24.8340
    25.0289  25.1974  25.4022  25.4842  26.5744  27.1386  27.2883  28.1917
    28.3739  29.7280  30.0562  30.3702  30.7820  30.8748  32.3612  32.4220
    32.4403  32.4940  32.7158  33.4281  33.8561  33.8744  34.9668  36.3217
    36.9087  37.4936  38.4213  38.6203  38.7371  38.9794

          k = 0.5775 0.2660 0.0000 (  4962 PWs)   bands (ev):

   -12.0947 -12.0502 -11.8752 -11.8289  -0.5947  -0.3694  -0.1008  -0.0492
     0.2118   0.2148   1.9466   2.2519   3.0314   3.3258   3.7249   3.8887
     7.6077   7.8412   9.9717  10.2863  13.1169  13.1324  13.3264  14.2116
    14.4045  14.9102  15.0152  17.3858  17.5599  17.7070  17.8774  18.0737
    19.0346  19.9652  20.0368  20.5484  20.6497  23.7063  24.3708  24.8158
    24.8933  25.2578  25.5018  25.5846  26.5679  27.1038  27.2719  28.1473
    28.4949  29.7261  30.0044  30.2018  30.6685  30.9663  32.3738  32.4068
    32.4331  32.4765  32.8830  33.5293  33.8827  33.9363  34.9239  36.3283
    36.9394  37.4035  38.4055  38.6171  38.7584  38.8316

          k = 0.5775 0.2550 0.0000 (  4958 PWs)   bands (ev):

   -12.1133 -12.0688 -11.8612 -11.8146  -0.6346  -0.3981  -0.0971  -0.0008
     0.2172   0.2528   1.9794   2.2783   3.0030   3.3324   3.7072   3.8914
     7.5740   7.8434   9.9897  10.2596  13.0783  13.1839  13.3857  14.1637
    14.3851  14.8773  14.9929  17.4189  17.5195  17.7657  17.8672  18.1655
    18.9419  20.0057  20.0135  20.5841  20.8128  23.4887  24.2824  24.7401
    24.7988  25.3168  25.6016  25.6835  26.5591  27.0646  27.2727  28.0982
    28.6046  29.7145  29.9734  30.0321  30.5550  31.0496  32.3062  32.3190
    32.4502  32.5815  33.0531  33.6163  33.9097  34.0197  34.9181  36.2637
    36.9981  37.3403  38.3808  38.6296  38.6354  38.7830

          k = 0.5775 0.2439 0.0000 (  4958 PWs)   bands (ev):

   -12.1315 -12.0870 -11.8481 -11.8011  -0.6743  -0.4278  -0.0958   0.0513
     0.2208   0.2956   2.0163   2.3083   2.9755   3.3353   3.6894   3.8917
     7.5395   7.8438  10.0090  10.2273  13.0339  13.2475  13.4497  14.1088
    14.3628  14.8455  14.9697  17.4559  17.4822  17.8351  17.8518  18.2612
    18.8533  19.9948  20.0522  20.6170  20.9793  23.2675  24.1902  24.5739
    24.7832  25.3744  25.7004  25.7809  26.5478  27.0215  27.2874  28.0457
    28.6982  29.6773  29.8631  29.9840  30.4445  31.1175  32.2011  32.2586
    32.4902  32.6711  33.2236  33.6876  33.9381  34.1247  34.9483  36.1525
    37.0335  37.3306  38.3503  38.4137  38.6563  38.8092

          k = 0.5775 0.2328 0.0000 (  4972 PWs)   bands (ev):

   -12.1493 -12.1047 -11.8358 -11.7885  -0.7132  -0.4580  -0.0967   0.1065
     0.2227   0.3421   2.0567   2.3416   2.9492   3.3344   3.6717   3.8897
     7.5043   7.8425  10.0293  10.1897  12.9840  13.3227  13.5180  14.0473
    14.3383  14.8158  14.9466  17.4476  17.4969  17.8288  17.9162  18.3600
    18.7694  19.9825  20.1027  20.6469  21.1486  23.0436  24.0945  24.3989
    24.7691  25.4302  25.7967  25.8764  26.5337  26.9753  27.3127  27.9914
    28.7708  29.6178  29.6964  30.0392  30.3391  31.1579  32.1063  32.1944
    32.5510  32.7436  33.3909  33.7440  33.9694  34.2500  35.0102  36.0141
    37.0130  37.3871  38.1808  38.3161  38.6906  38.8322

          k = 0.5775 0.2217 0.0000 (  4976 PWs)   bands (ev):

   -12.1666 -12.1219 -11.8243 -11.7767  -0.7510  -0.4882  -0.0996   0.1644
     0.2231   0.3916   2.1002   2.3779   2.9242   3.3299   3.6541   3.8854
     7.4689   7.8398  10.0500  10.1472  12.9292  13.4089  13.5895  13.9799
    14.3129  14.7887  14.9246  17.4174  17.5393  17.8012  18.0048  18.4614
    18.6900  19.9763  20.1570  20.6735  21.3196  22.8180  23.9953  24.2189
    24.7565  25.4843  25.8888  25.9701  26.5166  26.9266  27.3459  27.9374
    28.8161  29.5333  29.5536  30.1288  30.2398  31.1531  32.0426  32.1275
    32.6300  32.7992  33.5493  33.7875  34.0082  34.3928  35.0976  35.8595
    36.9612  37.4735  37.9445  38.2797  38.7099  38.8486

          k = 0.5775 0.2106 0.0000 (  4972 PWs)   bands (ev):

   -12.1833 -12.1385 -11.8136 -11.7657  -0.7877  -0.5180  -0.1041   0.2221
     0.2246   0.4438   2.1460   2.4169   2.9008   3.3219   3.6364   3.8789
     7.4335   7.8359  10.0707  10.1006  12.8703  13.5052  13.6625  13.9076
    14.2885  14.7644  14.9041  17.3909  17.5831  17.7684  18.1008  18.5649
    18.6149  19.9764  20.2145  20.6968  21.4915  22.5916  23.8927  24.0375
    24.7454  25.5365  25.9748  26.0617  26.4962  26.8760  27.3847  27.8860
    28.8279  29.3748  29.5010  30.1472  30.2443  31.0893  32.0269  32.0590
    32.7245  32.8398  33.6875  33.8208  34.0648  34.5489  35.2041  35.6951
    36.9004  37.5606  37.7098  38.2425  38.6849  38.8959

          k = 0.5775 0.1995 0.0000 (  4978 PWs)   bands (ev):

   -12.1994 -12.1546 -11.8037 -11.7554  -0.8230  -0.5471  -0.1101   0.2199
     0.2867   0.4979   2.1934   2.4582   2.8793   3.3105   3.6189   3.8702
     7.3984   7.8310  10.0494  10.0922  12.8081  13.6107  13.7341  13.8313
    14.2687  14.7432  14.8855  17.3679  17.6273  17.7309  18.2029  18.5435
    18.6702  19.9829  20.2744  20.7166  21.6627  22.3654  23.7869  23.8581
    24.7356  25.5868  26.0522  26.1510  26.4722  26.8241  27.4275  27.8402
    28.8023  29.2222  29.4708  30.0618  30.3800  30.9700  31.9900  32.0585
    32.8321  32.8679  33.7895  33.8461  34.1542  34.7135  35.3240  35.5247
    36.8379  37.4802  37.6361  38.2059  38.6343  38.9693

          k = 0.5775 0.1884 0.0000 (  4982 PWs)   bands (ev):

   -12.2148 -12.1700 -11.7945 -11.7459  -0.8568  -0.5753  -0.1172   0.2166
     0.3504   0.5535   2.2414   2.5014   2.8600   3.2958   3.6013   3.8595
     7.3637   7.8253   9.9962  10.1126  12.7435  13.7247  13.7522  13.7987
    14.2590  14.7249  14.8689  17.3480  17.6711  17.6895  18.3100  18.4750
    18.7768  19.9959  20.3364  20.7326  21.8313  22.1404  23.6779  23.6845
    24.7271  25.6349  26.1180  26.2378  26.4445  26.7713  27.4726  27.8033
    28.7424  29.0762  29.4656  29.9836  30.5316  30.8111  31.9214  32.1239
    32.8855  32.9503  33.8506  33.8649  34.2807  34.8818  35.3512  35.4528
    36.7765  37.2590  37.6937  38.1712  38.5767  39.0153

          k = 0.5775 0.1774 0.0000 (  4978 PWs)   bands (ev):

   -12.2297 -12.1847 -11.7861 -11.7372  -0.8890  -0.6024  -0.1252   0.2125
     0.4153   0.6101   2.2892   2.5461   2.8435   3.2781   3.5838   3.8468
     7.3298   7.8190   9.9407  10.1324  12.6773  13.6714  13.8434  13.8507
    14.2684  14.7095  14.8543  17.3307  17.6449  17.7142  18.4082  18.4213
    18.8844  20.0153  20.3999  20.7448  21.9174  21.9940  23.5209  23.5665
    24.7198  25.6809  26.1695  26.3215  26.4129  26.7183  27.5189  27.7790
    28.6575  28.9379  29.4804  29.9125  30.6279  30.6954  31.8538  32.2100
    32.8945  33.0767  33.8783  33.8839  34.4307  35.0486  35.1772  35.5864
    36.7174  37.0498  37.7299  38.1396  38.5178  39.0587

          k = 0.5775 0.1663 0.0000 (  4974 PWs)   bands (ev):

   -12.2438 -12.1987 -11.7783 -11.7291  -0.9196  -0.6284  -0.1339   0.2077
     0.4810   0.6673   2.3355   2.5919   2.8304   3.2575   3.5663   3.8323
     7.2968   7.8122   9.8838  10.1515  12.6106  13.5901  13.8738  13.9745
    14.3051  14.6966  14.8414  17.3154  17.5985  17.7553  18.3426  18.5353
    18.9929  20.0407  20.4641  20.7530  21.6979  22.1448  23.3749  23.4524
    24.7135  25.7247  26.2040  26.3771  26.4016  26.6660  27.5654  27.7702
    28.5575  28.8078  29.5088  29.8482  30.4305  30.8685  31.7881  32.3082
    32.8961  33.2091  33.8871  33.9019  34.5912  35.0043  35.2078  35.7222
    36.6612  36.8577  37.7426  38.1125  38.4597  39.1027

          k = 0.5775 0.1552 0.0000 (  4974 PWs)   bands (ev):

   -12.2571 -12.2120 -11.7712 -11.7216  -0.9484  -0.6530  -0.1431   0.2023
     0.5471   0.7246   2.3789   2.6384   2.8214   3.2343   3.5488   3.8163
     7.2650   7.8050   9.8263  10.1695  12.5442  13.5093  13.8761  14.1081
    14.3699  14.6860  14.8301  17.3012  17.5509  17.7943  18.2766  18.6516
    19.1020  20.0717  20.5284  20.7569  21.4828  22.2722  23.2588  23.3363
    24.7082  25.7660  26.2201  26.3377  26.4740  26.6180  27.6111  27.7792
    28.4501  28.6867  29.5461  29.7904  30.2255  31.0485  31.7248  32.4134
    32.8913  33.3448  33.8916  33.9115  34.7550  34.8349  35.3505  35.8578
    36.6085  36.6902  37.7312  38.0913  38.4035  39.1464

          k = 0.5775 0.1441 0.0000 (  4986 PWs)   bands (ev):

   -12.2697 -12.2245 -11.7648 -11.7149  -0.9755  -0.6763  -0.1524   0.1966
     0.6131   0.7815   2.4181   2.6852   2.8177   3.2088   3.5312   3.7988
     7.2345   7.7976   9.7690  10.1864  12.4789  13.4300  13.8614  14.2464
    14.4562  14.6773  14.8204  17.2874  17.5029  17.8307  18.2092  18.7694
    19.2115  20.1075  20.5920  20.7564  21.2737  22.3563  23.1931  23.2186
    24.7037  25.8049  26.2178  26.2944  26.5133  26.6003  27.6552  27.8062
    28.3401  28.5752  29.5892  29.7387  30.0172  31.2335  31.6644  32.5225
    32.8806  33.4809  33.8922  33.9160  34.6711  34.9185  35.4636  35.9910
    36.5572  36.5624  37.6965  38.0774  38.3498  39.1890

          k = 0.5775 0.1330 0.0000 (  4980 PWs)   bands (ev):

   -12.2815 -12.2362 -11.7589 -11.7087  -1.0007  -0.6980  -0.1618   0.1907
     0.6786   0.8376   2.4514   2.7319   2.8200   3.1814   3.5136   3.7803
     7.2056   7.7902   9.7125  10.2021  12.4155  13.3531  13.8370  14.3885
    14.5565  14.6704  14.8119  17.2731  17.4555  17.8641  18.1398  18.8879
    19.3212  20.1475  20.6527  20.7513  21.0732  22.3762  23.0997  23.1992
    24.7000  25.8412  26.1990  26.2479  26.4827  26.6497  27.6968  27.8499
    28.2311  28.4734  29.6363  29.6927  29.8089  31.4217  31.6073  32.6334
    32.8647  33.6129  33.8894  33.9171  34.5167  35.0793  35.5283  36.1196
    36.4848  36.5156  37.6404  38.0721  38.2990  39.1497

          k = 0.5775 0.1219 0.0000 (  4984 PWs)   bands (ev):

   -12.2924 -12.2470 -11.7536 -11.7031  -1.0241  -0.7183  -0.1710   0.1848
     0.7431   0.8922   2.4776   2.7783   2.8292   3.1525   3.4958   3.7609
     7.1783   7.7827   9.6577  10.2165  12.3547  13.2794  13.8079  14.5334
    14.6650  14.6659  14.8046  17.2575  17.4090  17.8945  18.0676  19.0062
    19.4308  20.1904  20.7020  20.7414  20.8908  22.3350  22.9804  23.2743
    24.6969  25.8749  26.1668  26.1986  26.4340  26.7148  27.7350  27.9074
    28.1251  28.3817  29.6032  29.6519  29.6864  31.5538  31.6114  32.7446
    32.8438  33.7328  33.8835  33.9161  34.3788  35.2356  35.5310  36.2418
    36.4751  36.4795  37.5660  38.0770  38.2514  38.9972

          k = 0.5775 0.1108 0.0000 (  4960 PWs)   bands (ev):

   -12.3025 -12.2570 -11.7488 -11.6981  -1.0455  -0.7369  -0.1799   0.1790
     0.8059   0.9450   2.4966   2.8238   2.8450   3.1225   3.4779   3.7411
     7.1529   7.7755   9.6051  10.2295  12.2972  13.2097  13.7771  14.6607
    14.6801  14.7807  14.7984  17.2399  17.3640  17.9217  17.9925  19.1238
    19.5400  20.2353  20.6517  20.7266  20.8152  22.2576  22.8614  23.3932
    24.6943  25.9059  26.1249  26.1475  26.3833  26.7797  27.7689  27.9752
    28.0236  28.2999  29.4031  29.6161  29.7381  31.5043  31.8007  32.8182
    32.8546  33.8220  33.8748  33.9135  34.2748  35.3862  35.4798  36.3553
    36.4422  36.5325  37.4771  38.0934  38.2074  38.8472

          k = 0.5775 0.0998 0.0000 (  4966 PWs)   bands (ev):

   -12.3117 -12.2661 -11.7446 -11.6936  -1.0650  -0.7538  -0.1883   0.1733
     0.8665   0.9952   2.5089   2.8649   2.8693   3.0920   3.4597   3.7212
     7.1294   7.7685   9.5553  10.2412  12.2435  13.1445  13.7465  14.6576
    14.7930  14.8272  14.8987  17.2195  17.3207  17.9144  17.9458  19.2398
    19.6483  20.2806  20.4931  20.7067  20.8560  22.1664  22.7437  23.5332
    24.6922  25.9340  26.0769  26.0955  26.3332  26.8422  27.7973  27.9277
    28.0496  28.2279  29.2113  29.5847  29.7906  31.4590  31.9877  32.7888
    32.9621  33.8434  33.8638  33.9099  34.2404  35.3978  35.5296  36.4145
    36.4585  36.6226  37.3783  38.1224  38.1671  38.7023

          k = 0.5775 0.0887 0.0000 (  4978 PWs)   bands (ev):

   -12.3200 -12.2744 -11.7409 -11.6897  -1.0825  -0.7692  -0.1962   0.1680
     0.9240   1.0423   2.5158   2.8902   2.9115   3.0616   3.4413   3.7017
     7.1081   7.7618   9.5091  10.2516  12.1942  13.0846  13.7173  14.6551
    14.7884  14.9734  15.0176  17.1958  17.2791  17.8342  17.9668  19.3534
    19.7550  20.3251  20.3334  20.6818  20.9070  22.0738  22.6284  23.6809
    24.6905  25.9593  26.0262  26.0439  26.2850  26.9019  27.8186  27.8380
    28.1270  28.1654  29.0310  29.5576  29.8430  31.4180  32.1697  32.7561
    33.0660  33.7893  33.8508  33.9058  34.2821  35.3053  35.6642  36.3942
    36.5492  36.7285  37.2745  38.1306  38.1644  38.5652

          k = 0.5775 0.0776 0.0000 (  4982 PWs)   bands (ev):

   -12.3273 -12.2817 -11.7377 -11.6863  -1.0981  -0.7827  -0.2034   0.1631
     0.9778   1.0858   2.5188   2.9163   2.9526   3.0320   3.4227   3.6829
     7.0890   7.7557   9.4669  10.2605  12.1497  13.0305  13.6902  14.6534
    14.7846  15.1169  15.1356  17.1685  17.2390  17.7531  17.9848  19.4639
    19.8593  20.1853  20.3672  20.6518  20.9563  21.9862  22.5170  23.8285
    24.6891  25.9755  25.9817  25.9939  26.2395  26.9587  27.7547  27.8310
    28.1118  28.2044  28.8662  29.5343  29.8941  31.3816  32.3433  32.7212
    33.1648  33.7057  33.8362  33.9016  34.3527  35.2138  35.7888  36.3819
    36.6268  36.8373  37.1707  38.0982  38.2184  38.4385

          k = 0.5775 0.0665 0.0000 (  4986 PWs)   bands (ev):

   -12.3337 -12.2880 -11.7350 -11.6834  -1.1116  -0.7946  -0.2098   0.1586
     1.0270   1.1250   2.5195   2.9420   2.9915   3.0040   3.4039   3.6654
     7.0722   7.7501   9.4292  10.2682  12.1103  12.9826  13.6659  14.6521
    14.7814  15.2479  15.2579  17.1377  17.1999  17.6730  18.0000  19.5702
    19.9597  20.0522  20.4055  20.6170  21.0015  21.9071  22.4113  23.9706
    24.6880  25.9275  25.9470  26.0009  26.1976  27.0127  27.6779  27.8325
    28.0667  28.2784  28.7216  29.5146  29.9428  31.3499  32.5037  32.6855
    33.2575  33.6244  33.8202  33.8974  34.4206  35.1299  35.9017  36.3781
    36.6907  36.9417  37.0722  38.0699  38.2727  38.3346

          k = 0.5775 0.0554 0.0000 (  4990 PWs)   bands (ev):

   -12.3392 -12.2934 -11.7327 -11.6809  -1.1230  -0.8046  -0.2154   0.1547
     1.0707   1.1594   2.5187   2.9659   2.9782   3.0279   3.3851   3.6495
     7.0579   7.7452   9.3965  10.2746  12.0765  12.9414  13.6447  14.6512
    14.7788  15.3564  15.3890  17.1043  17.1612  17.5971  18.0125  19.6711
    19.9361  20.0546  20.4383  20.5779  21.0415  21.8383  22.3133  24.1025
    24.6871  25.8838  25.9045  26.0172  26.1602  27.0640  27.6074  27.8215
    28.0296  28.3466  28.6015  29.4984  29.9876  31.3229  32.6439  32.6508
    33.3426  33.5601  33.8030  33.8935  34.4733  35.0566  36.0011  36.3826
    36.7415  36.9837  37.0369  38.0458  38.2113  38.3683

          k = 0.5775 0.0443 0.0000 (  4990 PWs)   bands (ev):

   -12.3437 -12.2979 -11.7308 -11.6789  -1.1324  -0.8128  -0.2200   0.1515
     1.1080   1.1884   2.5173   2.9556   2.9867   3.0611   3.3667   3.6359
     7.0460   7.7410   9.3692  10.2798  12.0484  12.9072  13.6270  14.6506
    14.7767  15.4543  15.5100  17.0699  17.1226  17.5290  18.0225  19.7650
    19.8389  20.1419  20.4642  20.5356  21.0754  21.7811  22.2260  24.2196
    24.6864  25.8460  25.8677  26.0304  26.1282  27.1130  27.5430  27.7983
    28.0000  28.4063  28.5092  29.4853  30.0271  31.3007  32.6184  32.7560
    33.4189  33.5219  33.7845  33.8901  34.5062  34.9958  36.0856  36.3938
    36.7802  36.9094  37.1194  38.0259  38.1267  38.4443

          k = 0.5775 0.0333 0.0000 (  4992 PWs)   bands (ev):

   -12.3471 -12.3013 -11.7293 -11.6774  -1.1398  -0.8192  -0.2236   0.1489
     1.1382   1.2115   2.5158   2.9370   3.0038   3.0902   3.3492   3.6247
     7.0367   7.7377   9.3476  10.2837  12.0264  12.8803  13.6131  14.6502
    14.7751  15.5380  15.6153  17.0370  17.0849  17.4727  18.0302  19.7618
    19.8493  20.2185  20.4821  20.4920  21.1025  21.7361  22.1526  24.3176
    24.6858  25.8154  25.8378  26.0405  26.1025  27.1597  27.4845  27.7671
    27.9774  28.4445  28.4554  29.4753  30.0598  31.2834  32.5908  32.8327
    33.4851  33.5138  33.7649  33.8873  34.5202  34.9482  36.1533  36.4084
    36.8081  36.8524  37.1866  38.0105  38.0578  38.5188

          k = 0.5775 0.0222 0.0000 (  4994 PWs)   bands (ev):

   -12.3496 -12.3038 -11.7283 -11.6763  -1.1450  -0.8238  -0.2263   0.1471
     1.1604   1.2283   2.5145   2.9231   3.0164   3.1138   3.3341   3.6165
     7.0301   7.7352   9.3320  10.2865  12.0105  12.8609  13.6030  14.6500
    14.7740  15.6031  15.6986  17.0092  17.0511  17.4312  18.0356  19.7060
    19.9197  20.2806  20.4510  20.4917  21.1223  21.7038  22.0964  24.3917
    24.6854  25.7929  25.8157  26.0474  26.0838  27.2036  27.4321  27.7354
    27.9616  28.4037  28.4919  29.4683  30.0843  31.2710  32.5696  32.8754
    33.5284  33.5403  33.7446  33.8852  34.5202  34.9141  36.2029  36.4222
    36.8138  36.8268  37.2363  37.9994  38.0073  38.5824

          k = 0.5775 0.0111 0.0000 (  5002 PWs)   bands (ev):

   -12.3512 -12.3053 -11.7277 -11.6756  -1.1481  -0.8266  -0.2279   0.1459
     1.1739   1.2385   2.5136   2.9145   3.0240   3.1297   3.3233   3.6115
     7.0260   7.7338   9.3226  10.2882  12.0010  12.8492  13.5969  14.6499
    14.7733  15.6446  15.7528  16.9904  17.0268  17.4062  18.0388  19.6721
    19.9689  20.3227  20.4196  20.4945  21.1344  21.6843  22.0611  24.4381
    24.6852  25.7791  25.8021  26.0511  26.0727  27.2418  27.3890  27.7121
    27.9522  28.3818  28.5144  29.4641  30.0996  31.2635  32.5562  32.8939
    33.5498  33.5793  33.7262  33.8840  34.5146  34.8937  36.2332  36.4316
    36.7924  36.8374  37.2669  37.9765  37.9927  38.6258

          k = 0.5775 0.0000 0.0000 (  4998 PWs)   bands (ev):

   -12.3516 -12.3058 -11.7275 -11.6754  -1.1492  -0.8275  -0.2284   0.1455
     1.1785   1.2420   2.5133   2.9116   3.0266   3.1354   3.3193   3.6098
     7.0247   7.7333   9.3194  10.2888  11.9978  12.8453  13.5949  14.6498
    14.7731  15.6589  15.7718  16.9837  17.0179  17.3979  18.0398  19.6608
    19.9870  20.3380  20.4074  20.4944  21.1384  21.6778  22.0490  24.4539
    24.6851  25.7745  25.7976  26.0521  26.0692  27.2605  27.3686  27.7036
    27.9490  28.3750  28.5220  29.4627  30.1047  31.2610  32.5516  32.8987
    33.5593  33.5949  33.7177  33.8835  34.5116  34.8869  36.2434  36.4349
    36.7857  36.8409  37.2772  37.9662  37.9905  38.6413

          k = 0.5583 0.0000 0.0000 (  4996 PWs)   bands (ev):

   -12.3573 -12.3114 -11.7246 -11.6724  -1.1450  -0.8223  -0.2230   0.1500
     1.1804   1.2438   2.4858   2.9342   3.0272   3.1359   3.3044   3.6233
     7.0162   7.7271   9.3370  10.3002  11.9987  12.8340  13.6021  14.6556
    14.7737  15.6614  15.7731  16.9179  17.0611  17.4054  18.0372  19.6648
    19.9724  20.2950  20.4559  20.4908  21.1253  21.6811  22.0503  24.4201
    24.6708  25.7062  25.9031  26.0409  26.0791  27.2626  27.3983  27.7161
    27.8591  28.3665  28.6246  29.4655  30.0997  31.2574  32.5198  32.9066
    33.4706  33.5614  33.7814  33.8714  34.4656  34.8885  36.2086  36.2349
    36.8072  36.9644  37.2905  37.8642  38.0364  38.6404

          k = 0.5390 0.0000 0.0000 (  4990 PWs)   bands (ev):

   -12.3739 -12.3278 -11.7162 -11.6636  -1.1326  -0.8066  -0.2068   0.1633
     1.1860   1.2493   2.4170   2.9882   3.0290   3.1373   3.2662   3.6575
     6.9918   7.7087   9.3888  10.3342  12.0010  12.8014  13.6235  14.6628
    14.7851  15.6685  15.7773  16.8187  17.0950  17.4262  18.0297  19.6768
    19.9295  20.2318  20.4793  20.5352  21.0865  21.6910  22.0546  24.3239
    24.6306  25.6680  26.0133  26.0494  26.1023  27.2702  27.4810  27.6800
    27.7516  28.3411  28.8405  29.4742  30.0849  31.2468  32.4259  32.9261
    33.3095  33.4641  33.8329  33.8772  34.3373  34.8924  35.8056  36.2081
    36.8680  37.0588  37.3316  37.5925  38.2346  38.5481

          k = 0.5198 0.0000 0.0000 (  4989 PWs)   bands (ev):

   -12.4003 -12.3538 -11.7035 -11.6501  -1.1119  -0.7804  -0.1799   0.1853
     1.1954   1.2585   2.3266   3.0319   3.0539   3.1395   3.2150   3.7019
     6.9546   7.6783   9.4720  10.3901  12.0037  12.7504  13.6585  14.6505
    14.8266  15.6796  15.7849  16.7029  17.1090  17.4560  18.0183  19.6974
    19.8604  20.1665  20.4579  20.6266  21.0233  21.7075  22.0628  24.1777
    24.5723  25.6688  25.9702  26.1360  26.2180  27.2860  27.4874  27.6005
    27.8044  28.2998  29.0893  29.4912  30.0609  31.2300  32.2744  32.9361
    33.1382  33.3114  33.7624  33.9784  34.1501  34.8969  35.3552  36.1602
    36.9592  37.0159  37.2846  37.4033  38.4036  38.5090

          k = 0.5005 0.0000 0.0000 (  4975 PWs)   bands (ev):

   -12.4348 -12.3879 -11.6877 -11.6334  -1.0831  -0.7440  -0.1425   0.2159
     1.2084   1.2712   2.2256   3.0359   3.1198   3.1427   3.1576   3.7498
     6.9089   7.6367   9.5825  10.4670  12.0047  12.6853  13.7061  14.6173
    14.8981  15.6933  15.7966  16.5738  17.1073  17.4898  18.0043  19.7270
    19.7679  20.0989  20.4246  20.7297  20.9380  21.7303  22.0763  23.9961
    24.5053  25.7038  25.9120  26.1773  26.4013  27.3025  27.3118  27.7362
    27.8678  28.2434  29.3285  29.5342  30.0292  31.2081  32.0717  32.8406
    33.0629  33.1138  33.6523  33.9302  34.0932  34.8864  34.9010  36.0891
    36.8460  36.9824  37.0718  37.5081  38.2630  38.7781

          k = 0.4813 0.0000 0.0000 (  4971 PWs)   bands (ev):

   -12.4760 -12.4285 -11.6703 -11.6147  -1.0462  -0.6974  -0.0952   0.2547
     1.2250   1.2874   2.1195   3.0410   3.0971   3.1466   3.1810   3.7977
     6.8589   7.5847   9.7158  10.5640  12.0007  12.6111  13.7647  14.5722
    14.9896  15.7079  15.8140  16.4336  17.0944  17.5250  17.9896  19.6549
    19.7659  20.0279  20.3778  20.8334  20.8447  21.7594  22.0966  23.7918
    24.4379  25.7670  25.8393  26.2212  26.5924  27.1322  27.3468  27.8660
    27.9359  28.1735  29.4538  29.6948  29.9925  31.1810  31.8264  32.6573
    32.8805  33.0770  33.4956  33.6996  34.2294  34.4146  34.9053  35.9954
    36.5776  36.7029  37.1999  37.6462  38.1529  38.9601

          k = 0.4620 0.0000 0.0000 (  4979 PWs)   bands (ev):

   -12.5224 -12.4742 -11.6524 -11.5953  -1.0015  -0.6410  -0.0383   0.3014
     1.2451   1.3071   2.0114   3.0361   3.0469   3.1512   3.2337   3.8436
     6.8085   7.5237   9.8671  10.6805  11.9865  12.5340  13.8324  14.5215
    15.0945  15.7212  15.8382  16.2846  17.0741  17.5616  17.9761  19.5242
    19.8134  19.9528  20.3167  20.7129  20.9712  21.7950  22.1251  23.5748
    24.3763  25.7523  25.8533  26.2625  26.7853  26.9791  27.3866  27.9673
    28.0048  28.0925  29.4882  29.9402  29.9548  31.1428  31.5541  32.4823
    32.6187  33.0987  33.2887  33.4722  33.9522  34.3894  34.9113  35.8835
    36.2439  36.4543  37.3414  37.8155  38.0826  39.0116

          k = 0.4428 0.0000 0.0000 (  4983 PWs)   bands (ev):

   -12.5727 -12.5237 -11.6349 -11.5761  -0.9490  -0.5750   0.0275   0.3556
     1.2686   1.3300   1.9032   2.9755   3.0537   3.1563   3.2762   3.8861
     6.7608   7.4550  10.0319  10.8160  11.9552  12.4609  13.9065  14.4706
    15.2084  15.7319  15.8698  16.1284  17.0503  17.6009  17.9661  19.3785
    19.8684  19.8737  20.2410  20.5802  21.1086  21.8375  22.1628  23.3524
    24.3242  25.6510  25.9581  26.2955  26.8444  26.9741  27.4217  27.9808
    28.0413  28.0745  29.5064  29.9216  30.1855  31.0441  31.3139  32.3335
    32.3450  33.0333  33.1154  33.2450  33.5205  34.5705  34.9203  35.7610
    35.8762  36.2406  37.4965  38.0113  38.0514  38.8387

          k = 0.4235 0.0000 0.0000 (  4981 PWs)   bands (ev):

   -12.6258 -12.5760 -11.6185 -11.5577  -0.8890  -0.4996   0.1013   0.4166
     1.2952   1.3561   1.7968   2.9165   3.0610   3.1620   3.3073   3.9241
     6.7179   7.3801  10.2056  10.9704  11.8998  12.3978  13.9839  14.4245
    15.3282  15.7394  15.9082  15.9670  17.0273  17.6450  17.9614  19.2205
    19.7901  19.9302  20.1515  20.4391  21.2559  21.8871  22.2106  23.1301
    24.2840  25.5347  26.0776  26.3146  26.7286  27.1531  27.4381  27.8805
    28.0320  28.1492  29.5189  29.8984  30.4092  30.7787  31.2220  32.0285
    32.2603  32.7358  32.9583  33.1273  33.1894  34.7661  34.9322  35.5012
    35.6386  36.0633  37.6668  38.0528  38.2264  38.4338

          k = 0.4043 0.0000 0.0000 (  4977 PWs)   bands (ev):

   -12.6808 -12.6301 -11.6038 -11.5407  -0.8219  -0.4153   0.1821   0.4838
     1.3250   1.3851   1.6940   2.8600   3.0690   3.1680   3.3260   3.9569
     6.6813   7.3001  10.3845  11.1437  11.8168  12.3467  14.0608  14.3881
    15.4514  15.7439  15.8022  15.9522  17.0102  17.6960  17.9639  19.0527
    19.7036  19.9959  20.0494  20.2935  21.4119  21.9445  22.2686  22.9121
    24.2567  25.4022  26.2084  26.3141  26.6314  27.3167  27.4220  27.7623
    27.9614  28.2355  29.5267  29.8892  30.4283  30.5983  31.2065  31.7066
    32.2336  32.4055  32.5908  32.9826  33.1375  34.9463  34.9678  35.1428
    35.5285  35.9222  37.8543  37.9194  38.0777  38.4500

          k = 0.3850 0.0000 0.0000 (  4993 PWs)   bands (ev):

   -12.7371 -12.6854 -11.5908 -11.5254  -0.7479  -0.3224   0.2681   0.5564
     1.3575   1.4169   1.5967   2.8068   3.0773   3.1742   3.3319   3.9837
     6.6511   7.2165  10.5651  11.3354  11.7080  12.3042  14.1331  14.3659
    15.5758  15.6364  15.7450  16.0004  17.0046  17.7558  17.9748  18.8778
    19.6148  19.9361  20.0640  20.1473  21.5750  22.0100  22.3370  22.7014
    24.2426  25.2526  26.2880  26.3473  26.5523  27.3672  27.4598  27.6315
    27.8260  28.3360  29.5297  29.8939  30.0522  30.7407  31.2166  31.3716
    32.0523  32.2276  32.2602  32.8091  33.1509  34.8246  34.9620  35.1667
    35.4433  35.8156  37.3704  38.0610  38.1159  38.6676

          k = 0.3658 0.0000 0.0000 (  4989 PWs)   bands (ev):

   -12.7938 -12.7411 -11.5799 -11.5120  -0.6675  -0.2215   0.3568   0.6335
     1.3926   1.4512   1.5079   2.7580   3.0859   3.1804   3.3252   4.0039
     6.6265   7.1312  10.7448  11.5449  11.5784  12.2640  14.1963  14.3619
    15.4717  15.7004  15.7427  16.0515  17.0163  17.8261  17.9949  18.6981
    19.5248  19.8136  20.0042  20.1327  21.7441  22.0836  22.4156  22.5008
    24.2416  25.0848  26.2298  26.4906  26.4908  27.2789  27.4861  27.5774
    27.6368  28.4455  29.5277  29.6669  29.9075  30.8263  31.0302  31.2405
    31.6890  31.8948  32.3270  32.6305  33.1727  34.5691  34.9796  35.3550
    35.3938  35.7406  36.8209  38.1562  38.2884  38.8610

          k = 0.3465 0.0000 0.0000 (  4999 PWs)   bands (ev):

   -12.8504 -12.7967 -11.5711 -11.5005  -0.5810  -0.1130   0.4441   0.7138
     1.4301   1.4316   1.4879   2.7144   3.0944   3.1866   3.3060   4.0167
     6.6049   7.0467  10.9217  11.4325  11.7704  12.2210  14.2461  14.3789
    15.3115  15.7367  15.8236  16.1041  17.0503  17.9085  18.0245  18.5160
    19.4345  19.6838  19.8679  20.2003  21.9177  22.1650  22.3122  22.5042
    24.2527  24.8988  26.1333  26.4452  26.6355  27.1689  27.3123  27.4204
    27.6651  28.5515  29.2829  29.5201  29.9203  30.6932  30.8489  31.2170
    31.3818  31.5988  32.4166  32.4290  33.2091  34.3929  35.0008  35.3863
    35.5269  35.6928  36.2912  38.1849  38.5368  39.0121

          k = 0.3273 0.0000 0.0000 (  5009 PWs)   bands (ev):

   -12.9064 -12.8517 -11.5643 -11.4910  -0.4890   0.0024   0.5235   0.7959
     1.3745   1.4697   1.5265   2.6773   3.1028   3.1924   3.2753   4.0218
     6.5812   6.9679  11.0944  11.2740  12.0096  12.1726  14.2787  14.4180
    15.1596  15.7266  15.9451  16.1564  17.1108  18.0044  18.0630  18.3334
    19.3449  19.5488  19.7417  20.2654  22.0946  22.1375  22.2527  22.6023
    24.2745  24.6954  25.9949  26.4150  26.7777  27.0492  27.0724  27.2273
    27.7174  28.6337  28.9113  29.5069  29.9200  30.3749  30.8080  30.9028
    31.3449  31.3782  32.2005  32.5111  33.2659  34.2981  35.0288  35.4212
    35.6662  35.6788  35.7983  38.1793  38.8048  39.1097

          k = 0.3080 0.0000 0.0000 (  5013 PWs)   bands (ev):

   -12.9613 -12.9057 -11.5594 -11.4833  -0.3920   0.1242   0.5855   0.8784
     1.3459   1.5110   1.5669   2.6479   3.1108   3.1979   3.2338   4.0185
     6.5470   6.9023  11.1054  11.2617  12.1179  12.2594  14.2911  14.4795
    15.0213  15.7122  16.0648  16.2070  17.1997  18.1074  18.1165  18.1525
    19.2568  19.4104  19.6290  20.3269  21.9781  22.2738  22.3441  22.7096
    24.3048  24.4777  25.8159  26.3987  26.7816  26.9126  26.9266  27.0540
    27.7238  28.5701  28.6627  29.4879  29.8879  30.1014  30.5391  30.7086
    31.1397  31.4390  31.9537  32.5967  33.3466  34.2691  35.0672  35.3630
    35.4930  35.6541  35.8105  38.0967  38.8984  39.0874

          k = 0.2888 0.0000 0.0000 (  5011 PWs)   bands (ev):

   -13.0148 -12.9581 -11.5563 -11.4773  -0.2904   0.2517   0.6197   0.9593
     1.3561   1.5538   1.6086   2.6275   3.1184   3.1827   3.2028   4.0067
     6.4927   6.8586  10.9291  11.4221  12.0577  12.5158  14.2817  14.5623
    14.9032  15.6934  16.1827  16.2540  17.3174  17.9750  18.1601  18.2418
    19.1706  19.2706  19.5328  20.3838  21.8350  22.4334  22.4548  22.8256
    24.2518  24.3401  25.6026  26.3952  26.4686  26.8014  26.8814  27.0347
    27.6599  28.2933  28.6061  29.4629  29.7254  29.9860  30.1846  30.5596
    30.9824  31.5062  31.7036  32.6673  33.4493  34.2681  35.0214  35.1194
    35.5923  35.6487  35.9236  37.8957  38.7266  39.1484

          k = 0.2695 0.0000 0.0000 (  4995 PWs)   bands (ev):

   -13.0664 -13.0088 -11.5548 -11.4730  -0.1850   0.3842   0.6220   1.0368
     1.4087   1.5976   1.6514   2.6176   3.1233   3.1253   3.2070   3.9859
     6.4146   6.8392  10.7471  11.5740  11.9934  12.7734  14.2517  14.6645
    14.8124  15.6702  16.2957  16.2993  17.4622  17.8026  18.2148  18.3849
    19.0869  19.1313  19.4558  20.4354  21.7091  22.5106  22.6366  22.9499
    24.0295  24.3753  25.3643  26.1446  26.4030  26.6703  26.7064  27.1350
    27.4989  28.1206  28.4554  29.4320  29.4536  29.8505  30.0141  30.3717
    30.8551  31.4671  31.5696  32.7233  33.5673  34.2236  34.8433  35.1877
    35.6411  35.7089  36.0216  37.6120  38.6422  38.9283

          k = 0.2503 0.0000 0.0000 (  5007 PWs)   bands (ev):

   -13.1158 -13.0573 -11.5547 -11.4701  -0.0762   0.5209   0.5982   1.1086
     1.4975   1.6419   1.6947   2.6196   3.0569   3.1313   3.2104   3.9558
     6.3168   6.8389  10.5612  11.7151  11.9269  13.0229  14.2100  14.7528
    14.7840  15.6430  16.3304  16.4154  17.6314  17.6366  18.2697  18.5453
    18.9942  19.0057  19.4003  20.4811  21.6007  22.5547  22.8193  23.0818
    23.8328  24.4033  25.1103  25.8160  26.4207  26.5287  26.5294  27.1882
    27.2878  28.0344  28.2356  29.1483  29.3948  29.5468  30.0931  30.1558
    30.7254  31.2648  31.6214  32.7689  33.6922  34.1037  34.8589  35.2709
    35.6207  35.8333  36.1088  37.3178  38.5551  38.5864

          k = 0.2310 0.0000 0.0000 (  5011 PWs)   bands (ev):

   -13.1627 -13.1033 -11.5558 -11.4685   0.0352   0.5582   0.6610   1.1730
     1.6117   1.6865   1.7381   2.6344   2.9847   3.1364   3.2129   3.9167
     6.2053   6.8507  10.3736  11.8432  11.8600  13.2457  14.1802  14.7240
    14.9184  15.6122  16.3570  16.5314  17.4784  17.8216  18.3218  18.7234
    18.8608  18.9272  19.3678  20.5200  21.5098  22.5323  23.0028  23.2208
    23.6969  24.4150  24.8489  25.4873  26.3515  26.3725  26.4472  27.0238
    27.2476  27.9783  27.9882  28.8199  29.2848  29.3504  29.9220  30.1819
    30.5658  31.1236  31.6550  32.8078  33.8169  33.9869  34.9840  35.3552
    35.5847  35.9583  36.1894  37.0633  38.1682  38.5286

          k = 0.2118 0.0000 0.0000 (  5011 PWs)   bands (ev):

   -13.2069 -13.1466 -11.5579 -11.4679   0.1485   0.5105   0.8037   1.2287
     1.7307   1.7421   1.7813   2.6625   2.9083   3.1406   3.2145   3.8684
     6.0844   6.8693  10.1865  11.7941  11.9561  13.4059  14.2053  14.7223
    15.0653  15.5784  16.3748  16.6481  17.3291  18.0290  18.3679  18.7327
    18.8510  18.9190  19.3591  20.5516  21.4359  22.4148  23.1871  23.3661
    23.6520  24.4000  24.5877  25.1619  26.1749  26.1989  26.4807  26.8295
    27.2177  27.7064  27.9569  28.4765  29.0771  29.2950  29.6823  30.2332
    30.3718  31.0728  31.6653  32.8430  33.9224  33.9364  35.1554  35.3571
    35.5991  36.0789  36.2674  36.8804  37.7877  38.4590

          k = 0.1925 0.0000 0.0000 (  5017 PWs)   bands (ev):

   -13.2480 -13.1869 -11.5606 -11.4682   0.2628   0.4607   0.9475   1.2751
     1.7741   1.8236   1.8815   2.7034   2.8297   3.1436   3.2152   3.8115
     5.9569   6.8917  10.0021  11.7308  12.0520  13.4686  14.3258  14.7446
    15.2221  15.5427  16.3835  16.7657  17.1898  18.2499  18.4052  18.6112
    18.7771  19.1315  19.3740  20.5749  21.3783  22.2105  23.3720  23.5166
    23.6903  24.3330  24.3502  24.8431  26.0014  26.0062  26.5199  26.6861
    27.1351  27.4312  27.9271  28.1264  28.9331  29.2121  29.4602  30.1475
    30.2211  31.1291  31.6491  32.8760  33.9156  34.0476  35.2206  35.3453
    35.7152  36.1921  36.3463  36.7800  37.4247  38.3769

          k = 0.1733 0.0000 0.0000 (  5005 PWs)   bands (ev):

   -13.2858 -13.2240 -11.5639 -11.4691   0.3723   0.4167   1.0908   1.3133
     1.8160   1.8645   2.0236   2.7515   2.7558   3.1456   3.2149   3.7463
     5.8246   6.9155   9.8230  11.6711  12.1302  13.4507  14.5269  14.7891
    15.3861  15.5060  16.3839  16.8844  17.0614  18.4310  18.4808  18.4975
    18.7053  19.3594  19.4114  20.5892  21.3355  21.9524  23.5569  23.6713
    23.7741  24.0978  24.2612  24.5335  25.7948  25.8332  26.5633  26.6019
    27.0073  27.1592  27.7787  27.8883  28.8531  29.0536  29.3098  29.9228
    30.1405  31.2719  31.6052  32.9074  33.9559  34.1485  35.0249  35.5325
    35.8678  36.2963  36.4291  36.7504  37.0912  38.2862

          k = 0.1540 0.0000 0.0000 (  5013 PWs)   bands (ev):

   -13.3202 -13.2578 -11.5675 -11.4705   0.3602   0.4965   1.2276   1.3485
     1.8560   1.9035   2.1596   2.6814   2.8163   3.1466   3.2139   3.6735
     5.6892   6.9394   9.6515  11.6160  12.1910  13.3946  14.7577  14.8626
    15.4694  15.5546  16.3771  16.9445  17.0042  18.3927  18.4428  18.6355
    18.7177  19.4689  19.6007  20.5935  21.3058  21.6689  23.7408  23.7910
    23.8285  23.9696  24.1400  24.2360  25.5676  25.6726  26.5726  26.6093
    26.8503  26.8922  27.4445  27.8381  28.8254  28.8287  29.2276  29.6943
    30.0367  31.4658  31.5347  32.9373  34.0290  34.2383  34.8124  35.6852
    36.0337  36.3909  36.5179  36.7712  36.8125  38.1926

          k = 0.1348 0.0000 0.0000 (  5013 PWs)   bands (ev):

   -13.3510 -13.2879 -11.5711 -11.4722   0.3179   0.6090   1.3233   1.4156
     1.8933   1.9399   2.2691   2.6368   2.8825   3.1468   3.2121   3.5943
     5.5528   6.9623   9.4905  11.5661  12.2360  13.3260  14.9003  15.0525
    15.4341  15.7241  16.3650  16.8400  17.1246  18.2979  18.4377  18.5689
    18.9564  19.5434  19.8518  20.5863  21.2871  21.3799  23.6138  23.9216
    23.9536  23.9865  23.9983  24.0594  25.3320  25.5221  26.5804  26.6282
    26.6563  26.6862  27.1373  27.7810  28.5896  28.8318  29.1672  29.4693
    29.9311  31.4409  31.6879  32.9655  34.1215  34.3164  34.6063  35.7368
    36.2019  36.4758  36.6143  36.6490  36.8263  38.1026

          k = 0.1155 0.0000 0.0000 (  5023 PWs)   bands (ev):

   -13.3779 -13.3143 -11.5747 -11.4740   0.2796   0.7195   1.3531   1.5391
     1.9274   1.9732   2.3101   2.6583   2.9504   3.1462   3.2097   3.5103
     5.4174   6.9834   9.3427  11.5220  12.2674  13.2569  14.9875  15.3068
    15.4011  15.8909  16.3493  16.7483  17.2453  18.2139  18.4118  18.5086
    19.1915  19.6307  20.1070  20.5638  21.1042  21.2769  23.4269  23.6904
    23.8487  24.0979  24.1418  24.1635  25.1044  25.3841  26.3651  26.4928
    26.6458  26.7024  26.8710  27.7231  28.3559  28.8564  29.1148  29.2527
    29.8351  31.3299  31.9256  32.9915  34.2221  34.3829  34.4198  35.6253
    36.3621  36.5509  36.6572  36.7190  36.9057  38.0232

          k = 0.0963 0.0000 0.0000 (  5015 PWs)   bands (ev):

   -13.4010 -13.3369 -11.5780 -11.4758   0.2463   0.8255   1.3653   1.6697
     1.9576   2.0027   2.2771   2.7494   3.0162   3.1451   3.2072   3.4236
     5.2863   7.0020   9.2110  11.4842  12.2881  13.1934  15.0716  15.3714
    15.5574  16.0505  16.3322  16.6699  17.3654  18.1416  18.3625  18.4578
    19.4156  19.7256  20.3526  20.5114  20.8775  21.2728  23.2591  23.4502
    23.7049  24.2155  24.2643  24.2912  24.9235  25.2613  26.1068  26.3343
    26.6530  26.7007  26.7458  27.6695  28.1368  28.8876  29.0498  29.0681
    29.7536  31.2098  32.1713  33.0148  34.2598  34.3217  34.4380  35.4034
    36.5037  36.6161  36.7790  36.8316  37.0023  37.9625

          k = 0.0770 0.0000 0.0000 (  5005 PWs)   bands (ev):

   -13.4199 -13.3555 -11.5809 -11.4774   0.2186   0.9244   1.3718   1.7937
     1.9834   2.0278   2.2146   2.8636   3.0761   3.1438   3.2046   3.3374
     5.1635   7.0178   9.0982  11.4528  12.3008  13.1386  15.1508  15.3459
    15.7909  16.1972  16.3154  16.6053  17.4840  18.0815  18.2958  18.4126
    19.6189  19.8217  20.3774  20.5548  20.7927  21.2720  23.1150  23.2387
    23.5761  24.1556  24.4166  24.4297  24.8485  25.1563  25.8659  26.1893
    26.4823  26.7614  26.7847  27.6242  27.9396  28.8669  28.9185  29.0273
    29.6881  31.0904  32.4180  33.0347  34.1291  34.4130  34.4822  35.1461
    36.6185  36.6713  36.9352  36.9503  37.1062  37.9311

          k = 0.0578 0.0000 0.0000 (  4993 PWs)   bands (ev):

   -13.4348 -13.3701 -11.5832 -11.4788   0.1968   1.0124   1.3753   1.9047
     2.0041   2.0480   2.1480   2.9730   3.1260   3.1424   3.2022   3.2572
     5.0548   7.0303   9.0072  11.4283  12.3080  13.0944  15.2195  15.3252
    15.9955  16.3006  16.3243  16.5547  17.5999  18.0341  18.2191  18.3697
    19.7865  19.9114  20.2077  20.5964  20.9285  21.2725  22.9979  23.0624
    23.4694  23.9967  24.5486  24.5506  24.8717  25.0716  25.6584  26.0666
    26.3542  26.8152  26.8172  27.5901  27.7721  28.7117  28.9450  28.9937
    29.6383  30.9825  32.6569  33.0508  34.0284  34.4900  34.5159  34.8900
    36.7042  36.7156  37.0705  37.0868  37.2000  37.9413

          k = 0.0385 0.0000 0.0000 (  4999 PWs)   bands (ev):

   -13.4455 -13.3806 -11.5850 -11.4798   0.1811   1.0839   1.3770   1.9952
     2.0193   2.0628   2.0897   3.0631   3.1412   3.1574   3.1952   3.2003
     4.9675   7.0394   8.9401  11.4106  12.3117  13.0621  15.2729  15.3101
    16.1579  16.2891  16.4239  16.5184  17.7114  18.0000  18.1360  18.3320
    19.8888  19.9857  20.0749  20.5964  21.1100  21.2728  22.9114  22.9287
    23.3899  23.8181  24.6461  24.6528  24.9255  25.0092  25.4991  25.9723
    26.2647  26.8416  26.8552  27.5683  27.6429  28.5922  28.9646  28.9685
    29.6036  30.8963  32.8727  33.0626  33.9573  34.5395  34.5477  34.6599
    36.7483  36.7626  37.1829  37.2127  37.2662  37.9988

          k = 0.0193 0.0000 0.0000 (  4995 PWs)   bands (ev):

   -13.4519 -13.3869 -11.5861 -11.4805   0.1716   1.1318   1.3778   2.0285
     2.0492   2.0560   2.0719   3.1228   3.1333   3.1404   3.1955   3.1991
     4.9102   7.0449   8.8991  11.4000  12.3133  13.0425  15.3009  15.3067
    16.2636  16.2818  16.4881  16.4966  17.8140  17.9794  18.0508  18.3056
    19.8751  20.0353  20.0584  20.6002  21.2426  21.2727  22.8447  22.8591
    23.3410  23.6814  24.7080  24.7205  24.9689  24.9711  25.3989  25.9121
    26.2116  26.8568  26.8789  27.5572  27.5608  28.5166  28.9528  28.9766
    29.5832  30.8407  33.0363  33.0698  33.9149  34.4844  34.5536  34.5863
    36.7684  36.7965  37.2696  37.2971  37.3009  38.0865

          k = 0.0000 0.0000 0.0000 (  4975 PWs)   bands (ev):

   -13.4540 -13.3890 -11.5865 -11.4807   0.1685   1.1488   1.3781   2.0317
     2.0346   2.0749   2.0777   3.1173   3.1402   3.1439   3.1987   3.2024
     4.8900   7.0468   8.8853  11.3965  12.3138  13.0359  15.2978  15.3183
    16.2793  16.3004  16.4893  16.5103  17.8757  17.9726  17.9949  18.2961
    19.8491  20.0528  20.0718  20.6031  21.2725  21.2913  22.8160  22.8420
    23.3245  23.6297  24.7295  24.7442  24.9582  24.9849  25.3648  25.8913
    26.1941  26.8619  26.8866  27.5326  27.5539  28.4906  28.9475  28.9806
    29.5764  30.8214  33.0723  33.1006  33.9009  34.4173  34.5583  34.5982
    36.7752  36.8076  37.3036  37.3110  37.3270  38.1166

     Writing all to output data dir ./work/Al2O2.save/
 
     init_run     :      4.61s CPU      4.64s WALL (       1 calls)
     electrons    :    135.98s CPU    177.75s WALL (       1 calls)

     Called by init_run:
     wfcinit      :      0.00s CPU      0.00s WALL (       1 calls)
     potinit      :      4.51s CPU      4.54s WALL (       1 calls)
     hinit0       :      0.07s CPU      0.07s WALL (       1 calls)

     Called by electrons:
     c_bands      :    135.97s CPU    177.75s WALL (       1 calls)
     v_of_rho     :      4.44s CPU      4.46s WALL (       1 calls)
     newd         :      0.02s CPU      0.02s WALL (       1 calls)
     PAW_pot      :      0.07s CPU      0.08s WALL (       1 calls)
     vdW_kernel   :      4.43s CPU      4.43s WALL (       1 calls)

     Called by c_bands:
     init_us_2    :      0.02s CPU      0.02s WALL (      91 calls)
     init_us_2:cp :      0.02s CPU      0.02s WALL (      91 calls)
     cegterg      :    133.31s CPU    173.86s WALL (     356 calls)

     Called by *egterg:
     cdiaghg      :     30.50s CPU     31.35s WALL (    6281 calls)
     h_psi        :     66.10s CPU    104.19s WALL (    6637 calls)
     s_psi        :      3.28s CPU      3.71s WALL (    6637 calls)
     g_psi        :      0.20s CPU      0.21s WALL (    6190 calls)

     Called by h_psi:
     h_psi:calbec :      4.58s CPU      6.70s WALL (    6637 calls)
     vloc_psi     :     57.60s CPU     92.63s WALL (    6637 calls)
     add_vuspsi   :      3.59s CPU      4.52s WALL (    6637 calls)

     General routines
     calbec       :      4.57s CPU      6.69s WALL (    6637 calls)
     fft          :      0.01s CPU      0.02s WALL (      62 calls)
     fftw         :     55.66s CPU     89.67s WALL (  426664 calls)
     davcio       :      0.03s CPU      0.04s WALL (     182 calls)
 
     Parallel routines
 
     PWSCF        :   2m21.54s CPU   3m 4.30s WALL

 
   This run was terminated on:  12:47:59  19Jun2023            

=------------------------------------------------------------------------------=
   JOB DONE.
=------------------------------------------------------------------------------=
