
     Program BANDS v.7.1 starts on 17Jun2023 at 14: 9: 7 

     This program is part of the open-source Quantum ESPRESSO suite
     for quantum simulation of materials; please cite
         "P. Giannozzi et al., J. Phys.:Condens. Matter 21 395502 (2009);
         "P. Giannozzi et al., J. Phys.:Condens. Matter 29 465901 (2017);
         "P. Giannozzi et al., J. Chem. Phys. 152 154105 (2020);
          URL http://www.quantum-espresso.org", 
     in publications or presentations arising from this work. More details at
     http://www.quantum-espresso.org/quote

     Parallel version (MPI), running on    16 processors

     MPI processes distributed on     1 nodes
     R & G space division:  proc/nbgrp/npool/nimage =      16
     51326 MiB available memory on the printing compute node when the environment starts
 

     Reading xml data from directory:

     ./work/Al2O2.save/
     Message from routine volume:
     axis vectors are left-handed
     file Al.pbe-n-kjpaw_psl.1.0.0.UPF: wavefunction(s)  3S 3P renormalized
     file O.pbe-n-kjpaw_psl.1.0.0.UPF: wavefunction(s)  2S 2P renormalized

     IMPORTANT: XC functional enforced from input :
     Exchange-correlation= PBE
                           (   1   4   3   4   0   0   0)
     Any further DFT definition will be discarded
     Please, verify this is what you really want

 
     Parallelization info
     --------------------
     sticks:   dense  smooth     PW     G-vecs:    dense   smooth      PW
     Min          39      39     11                 3791     3791     599
     Max          40      40     12                 3799     3799     614
     Sum         625     625    187                60707    60707    9781
 
     Using Slab Decomposition
 

     Check: negative core charge=   -0.000006
     Reading collected, re-writing distributed wavefunctions
     high-symmetry point:  0.0000 0.0000 0.0000   x coordinate   0.0000
     high-symmetry point:  0.5775 0.3325 0.0000   x coordinate   0.6664
     high-symmetry point:  0.5775 0.0000 0.0000   x coordinate   0.9990
     high-symmetry point:  0.0000 0.0000 0.0000   x coordinate   1.5765

     Plottable bands (eV) written to file AA.bands.gnu
     Bands written to file AA.bands

 **************************************************************************

                    xk=(   0.00000,   0.00000,   0.00000  )

     point group C_s (m)    
     there are  2 classes
     the character table:

       E     s    
A'     1.00  1.00
A''    1.00 -1.00

     the symmetry operations in each class and the name of the first element:

     E        1
                                                                 
     s        2
                                                                 

     Band symmetry, C_s (m)     point group:

     e(  1 -  1) =    -15.92603  eV     1   --> A'             
     e(  2 -  2) =    -15.91840  eV     1   --> A'             
     e(  3 -  3) =    -15.85101  eV     1   --> A'             
     e(  4 -  4) =    -15.84301  eV     1   --> A'             
     e(  5 -  5) =     -2.85039  eV     1   --> A'             
     e(  6 -  6) =     -2.79257  eV     1   --> A'             
     e(  7 -  7) =     -0.79607  eV     1   --> A''            
     e(  8 -  9) =     -0.79241  eV     2   --> A'             
     e(  8 -  9) =     -0.79241  eV     2   --> A''            
     e( 10 - 10) =     -0.78868  eV     1   --> A'             
     e( 11 - 11) =     -0.78093  eV     1   --> A'             
     e( 12 - 12) =     -0.75336  eV     1   --> A''            
     e( 13 - 13) =     -0.74984  eV     1   --> A'             
     e( 14 - 14) =     -0.74883  eV     1   --> A''            
     e( 15 - 15) =     -0.74533  eV     1   --> A'             
     e( 16 - 16) =     -0.57129  eV     1   --> A'             
     e( 17 - 17) =      1.44302  eV     1   --> A'             
     e( 18 - 18) =      1.78886  eV     1   --> A'             
     e( 19 - 19) =      3.96030  eV     1   --> A'             
     e( 20 - 20) =      4.43189  eV     1   --> A'             
     e( 21 - 21) =      6.29003  eV     1   --> A'             
     e( 22 - 22) =      6.91272  eV     1   --> A'             
     e( 23 - 23) =      9.01377  eV     1   --> A'             
     e( 24 - 24) =      9.99269  eV     1   --> A'             
     e( 25 - 25) =     11.55046  eV     1   --> A'             
     e( 26 - 26) =     11.73123  eV     1   --> A''            
     e( 27 - 27) =     11.74890  eV     1   --> A''            
     e( 28 - 28) =     11.75148  eV     1   --> A'             
     e( 29 - 29) =     11.76909  eV     1   --> A'             
     e( 30 - 30) =     13.21692  eV     1   --> A'             
     e( 31 - 31) =     13.27028  eV     1   --> A''            
     e( 32 - 32) =     13.29155  eV     1   --> A'             
     e( 33 - 33) =     13.31362  eV     1   --> A''            
     e( 34 - 34) =     13.33477  eV     1   --> A'             
     e( 35 - 35) =     14.31819  eV     1   --> A'             
     e( 36 - 36) =     15.14720  eV     1   --> A'             
     e( 37 - 37) =     16.19501  eV     1   --> A''            
     e( 38 - 38) =     16.21607  eV     1   --> A'             
     e( 39 - 39) =     16.25717  eV     1   --> A''            
     e( 40 - 40) =     16.27841  eV     1   --> A'             
     e( 41 - 41) =     16.83379  eV     1   --> A'             
     e( 42 - 42) =     18.46202  eV     1   --> A'             
     e( 43 - 43) =     18.94451  eV     1   --> A'             
     e( 44 - 44) =     19.13130  eV     1   --> A''            
     e( 45 - 45) =     19.15539  eV     1   --> A'             
     e( 46 - 46) =     19.27063  eV     1   --> A'             
     e( 47 - 47) =     19.31086  eV     1   --> A''            
     e( 48 - 48) =     19.33483  eV     1   --> A'             
     e( 49 - 49) =     19.34940  eV     1   --> A'             
     e( 50 - 50) =     20.57088  eV     1   --> A'             
     e( 51 - 51) =     20.79946  eV     1   --> A''            
     e( 52 - 52) =     20.81910  eV     1   --> A'             
     e( 53 - 53) =     21.05947  eV     1   --> A''            
     e( 54 - 54) =     21.07995  eV     1   --> A'             
     e( 55 - 55) =     22.57396  eV     1   --> A'             
     e( 56 - 56) =     22.96657  eV     1   --> A''            
     e( 57 - 57) =     22.99154  eV     1   --> A'             
     e( 58 - 58) =     23.16654  eV     1   --> A'             
     e( 59 - 59) =     23.25319  eV     1   --> A'             
     e( 60 - 60) =     23.66074  eV     1   --> A''            
     e( 61 - 61) =     23.68401  eV     1   --> A'             
     e( 62 - 62) =     24.44410  eV     1   --> A''            
     e( 63 - 63) =     24.47047  eV     1   --> A'             
     e( 64 - 64) =     24.76048  eV     1   --> A''            
     e( 65 - 65) =     24.78942  eV     1   --> A'             
     e( 66 - 66) =     25.57937  eV     1   --> A'             
     e( 67 - 67) =     26.59609  eV     1   --> A'             
     e( 68 - 68) =     26.62197  eV     1   --> A''            
     e( 69 - 69) =     26.64551  eV     1   --> A'             
     e( 70 - 70) =     26.93584  eV     1   --> A'             

 **************************************************************************

 **************************************************************************

                    xk=(   0.01925,   0.01108,   0.00000  )

     point group C_1 (1)    
     there are  1 classes
     the character table:

       E    
A      1.00

     the symmetry operations in each class and the name of the first element:

     E        1
                                                                 

     Band symmetry, C_1 (1)     point group:

     e(  1 -  1) =    -15.92417  eV     1   --> A              
     e(  2 -  2) =    -15.91655  eV     1   --> A              
     e(  3 -  3) =    -15.84925  eV     1   --> A              
     e(  4 -  4) =    -15.84127  eV     1   --> A              
     e(  5 -  5) =     -2.84793  eV     1   --> A              
     e(  6 -  6) =     -2.79051  eV     1   --> A              
     e(  7 -  7) =     -0.80955  eV     1   --> A              
     e(  8 -  8) =     -0.80368  eV     1   --> A              
     e(  9 -  9) =     -0.79717  eV     1   --> A              
     e( 10 - 10) =     -0.79338  eV     1   --> A              
     e( 11 - 11) =     -0.78366  eV     1   --> A              
     e( 12 - 12) =     -0.76468  eV     1   --> A              
     e( 13 - 13) =     -0.76128  eV     1   --> A              
     e( 14 - 14) =     -0.75426  eV     1   --> A              
     e( 15 - 15) =     -0.74985  eV     1   --> A              
     e( 16 - 16) =     -0.56697  eV     1   --> A              
     e( 17 - 17) =      1.45654  eV     1   --> A              
     e( 18 - 18) =      1.79925  eV     1   --> A              
     e( 19 - 19) =      3.97959  eV     1   --> A              
     e( 20 - 20) =      4.45109  eV     1   --> A              
     e( 21 - 21) =      6.29582  eV     1   --> A              
     e( 22 - 22) =      6.92190  eV     1   --> A              
     e( 23 - 23) =      9.01599  eV     1   --> A              
     e( 24 - 24) =      9.99908  eV     1   --> A              
     e( 25 - 25) =     11.54441  eV     1   --> A              
     e( 26 - 26) =     11.69395  eV     1   --> A              
     e( 27 - 27) =     11.70871  eV     1   --> A              
     e( 28 - 28) =     11.73949  eV     1   --> A              
     e( 29 - 29) =     11.75693  eV     1   --> A              
     e( 30 - 30) =     13.14198  eV     1   --> A              
     e( 31 - 31) =     13.28395  eV     1   --> A              
     e( 32 - 32) =     13.30464  eV     1   --> A              
     e( 33 - 33) =     13.33158  eV     1   --> A              
     e( 34 - 34) =     13.33896  eV     1   --> A              
     e( 35 - 35) =     14.34653  eV     1   --> A              
     e( 36 - 36) =     15.19533  eV     1   --> A              
     e( 37 - 37) =     16.15383  eV     1   --> A              
     e( 38 - 38) =     16.19310  eV     1   --> A              
     e( 39 - 39) =     16.20012  eV     1   --> A              
     e( 40 - 40) =     16.25608  eV     1   --> A              
     e( 41 - 41) =     16.90116  eV     1   --> A              
     e( 42 - 42) =     18.46733  eV     1   --> A              
     e( 43 - 43) =     18.97299  eV     1   --> A              
     e( 44 - 44) =     19.06154  eV     1   --> A              
     e( 45 - 45) =     19.16393  eV     1   --> A              
     e( 46 - 46) =     19.28692  eV     1   --> A              
     e( 47 - 47) =     19.30227  eV     1   --> A              
     e( 48 - 48) =     19.34543  eV     1   --> A              
     e( 49 - 49) =     19.47126  eV     1   --> A              
     e( 50 - 50) =     20.63775  eV     1   --> A              
     e( 51 - 51) =     20.76870  eV     1   --> A              
     e( 52 - 52) =     20.78837  eV     1   --> A              
     e( 53 - 53) =     21.03975  eV     1   --> A              
     e( 54 - 54) =     21.06057  eV     1   --> A              
     e( 55 - 55) =     22.61007  eV     1   --> A              
     e( 56 - 56) =     22.95233  eV     1   --> A              
     e( 57 - 57) =     23.00254  eV     1   --> A              
     e( 58 - 58) =     23.13159  eV     1   --> A              
     e( 59 - 59) =     23.28474  eV     1   --> A              
     e( 60 - 60) =     23.66293  eV     1   --> A              
     e( 61 - 61) =     23.69372  eV     1   --> A              
     e( 62 - 62) =     24.41062  eV     1   --> A              
     e( 63 - 63) =     24.44856  eV     1   --> A              
     e( 64 - 64) =     24.69260  eV     1   --> A              
     e( 65 - 65) =     24.77199  eV     1   --> A              
     e( 66 - 66) =     25.65927  eV     1   --> A              
     e( 67 - 67) =     26.57426  eV     1   --> A              
     e( 68 - 68) =     26.61035  eV     1   --> A              
     e( 69 - 69) =     26.67333  eV     1   --> A              
     e( 70 - 70) =     26.98061  eV     1   --> A              

 **************************************************************************

 **************************************************************************

                    xk=(   0.03850,   0.02217,   0.00000  )

     Band symmetry, C_1 (1)     point group:

     e(  1 -  1) =    -15.91860  eV     1   --> A              
     e(  2 -  2) =    -15.91100  eV     1   --> A              
     e(  3 -  3) =    -15.84399  eV     1   --> A              
     e(  4 -  4) =    -15.83604  eV     1   --> A              
     e(  5 -  5) =     -2.84072  eV     1   --> A              
     e(  6 -  6) =     -2.78455  eV     1   --> A              
     e(  7 -  7) =     -0.85564  eV     1   --> A              
     e(  8 -  8) =     -0.84354  eV     1   --> A              
     e(  9 -  9) =     -0.82182  eV     1   --> A              
     e( 10 - 10) =     -0.81426  eV     1   --> A              
     e( 11 - 11) =     -0.80399  eV     1   --> A              
     e( 12 - 12) =     -0.80018  eV     1   --> A              
     e( 13 - 13) =     -0.76374  eV     1   --> A              
     e( 14 - 14) =     -0.76038  eV     1   --> A              
     e( 15 - 15) =     -0.75619  eV     1   --> A              
     e( 16 - 16) =     -0.55590  eV     1   --> A              
     e( 17 - 17) =      1.49560  eV     1   --> A              
     e( 18 - 18) =      1.82938  eV     1   --> A              
     e( 19 - 19) =      4.03649  eV     1   --> A              
     e( 20 - 20) =      4.50781  eV     1   --> A              
     e( 21 - 21) =      6.31307  eV     1   --> A              
     e( 22 - 22) =      6.94921  eV     1   --> A              
     e( 23 - 23) =      9.02259  eV     1   --> A              
     e( 24 - 24) =     10.01779  eV     1   --> A              
     e( 25 - 25) =     11.52609  eV     1   --> A              
     e( 26 - 26) =     11.55119  eV     1   --> A              
     e( 27 - 27) =     11.56173  eV     1   --> A              
     e( 28 - 28) =     11.74212  eV     1   --> A              
     e( 29 - 29) =     11.75931  eV     1   --> A              
     e( 30 - 30) =     13.01622  eV     1   --> A              
     e( 31 - 31) =     13.24580  eV     1   --> A              
     e( 32 - 32) =     13.31127  eV     1   --> A              
     e( 33 - 33) =     13.35630  eV     1   --> A              
     e( 34 - 34) =     13.39770  eV     1   --> A              
     e( 35 - 35) =     14.41561  eV     1   --> A              
     e( 36 - 36) =     15.32542  eV     1   --> A              
     e( 37 - 37) =     16.00995  eV     1   --> A              
     e( 38 - 38) =     16.05144  eV     1   --> A              
     e( 39 - 39) =     16.16313  eV     1   --> A              
     e( 40 - 40) =     16.22922  eV     1   --> A              
     e( 41 - 41) =     17.04718  eV     1   --> A              
     e( 42 - 42) =     18.48304  eV     1   --> A              
     e( 43 - 43) =     18.93451  eV     1   --> A              
     e( 44 - 44) =     19.05184  eV     1   --> A              
     e( 45 - 45) =     19.19379  eV     1   --> A              
     e( 46 - 46) =     19.22406  eV     1   --> A              
     e( 47 - 47) =     19.39207  eV     1   --> A              
     e( 48 - 48) =     19.41995  eV     1   --> A              
     e( 49 - 49) =     19.71181  eV     1   --> A              
     e( 50 - 50) =     20.68029  eV     1   --> A              
     e( 51 - 51) =     20.70405  eV     1   --> A              
     e( 52 - 52) =     20.81604  eV     1   --> A              
     e( 53 - 53) =     20.98314  eV     1   --> A              
     e( 54 - 54) =     21.00694  eV     1   --> A              
     e( 55 - 55) =     22.68361  eV     1   --> A              
     e( 56 - 56) =     22.87571  eV     1   --> A              
     e( 57 - 57) =     23.05778  eV     1   --> A              
     e( 58 - 58) =     23.07156  eV     1   --> A              
     e( 59 - 59) =     23.37759  eV     1   --> A              
     e( 60 - 60) =     23.63394  eV     1   --> A              
     e( 61 - 61) =     23.75739  eV     1   --> A              
     e( 62 - 62) =     24.30391  eV     1   --> A              
     e( 63 - 63) =     24.40546  eV     1   --> A              
     e( 64 - 64) =     24.48818  eV     1   --> A              
     e( 65 - 65) =     24.77471  eV     1   --> A              
     e( 66 - 66) =     25.84905  eV     1   --> A              
     e( 67 - 67) =     26.51111  eV     1   --> A              
     e( 68 - 68) =     26.55014  eV     1   --> A              
     e( 69 - 69) =     26.77846  eV     1   --> A              
     e( 70 - 70) =     27.08873  eV     1   --> A              

 **************************************************************************

 **************************************************************************

                    xk=(   0.05775,   0.03325,   0.00000  )

     Band symmetry, C_1 (1)     point group:

     e(  1 -  1) =    -15.90939  eV     1   --> A              
     e(  2 -  2) =    -15.90183  eV     1   --> A              
     e(  3 -  3) =    -15.83530  eV     1   --> A              
     e(  4 -  4) =    -15.82738  eV     1   --> A              
     e(  5 -  5) =     -2.82936  eV     1   --> A              
     e(  6 -  6) =     -2.77532  eV     1   --> A              
     e(  7 -  7) =     -0.92742  eV     1   --> A              
     e(  8 -  8) =     -0.90657  eV     1   --> A              
     e(  9 -  9) =     -0.89702  eV     1   --> A              
     e( 10 - 10) =     -0.89152  eV     1   --> A              
     e( 11 - 11) =     -0.81520  eV     1   --> A              
     e( 12 - 12) =     -0.81134  eV     1   --> A              
     e( 13 - 13) =     -0.77132  eV     1   --> A              
     e( 14 - 14) =     -0.76666  eV     1   --> A              
     e( 15 - 15) =     -0.75153  eV     1   --> A              
     e( 16 - 16) =     -0.54064  eV     1   --> A              
     e( 17 - 17) =      1.55627  eV     1   --> A              
     e( 18 - 18) =      1.87652  eV     1   --> A              
     e( 19 - 19) =      4.12830  eV     1   --> A              
     e( 20 - 20) =      4.59960  eV     1   --> A              
     e( 21 - 21) =      6.34136  eV     1   --> A              
     e( 22 - 22) =      6.99404  eV     1   --> A              
     e( 23 - 23) =      9.03336  eV     1   --> A              
     e( 24 - 24) =     10.04713  eV     1   --> A              
     e( 25 - 25) =     11.33157  eV     1   --> A              
     e( 26 - 26) =     11.35029  eV     1   --> A              
     e( 27 - 27) =     11.49490  eV     1   --> A              
     e( 28 - 28) =     11.74684  eV     1   --> A              
     e( 29 - 29) =     11.76338  eV     1   --> A              
     e( 30 - 30) =     12.86284  eV     1   --> A              
     e( 31 - 31) =     13.15061  eV     1   --> A              
     e( 32 - 32) =     13.35382  eV     1   --> A              
     e( 33 - 33) =     13.40139  eV     1   --> A              
     e( 34 - 34) =     13.44872  eV     1   --> A              
     e( 35 - 35) =     14.48624  eV     1   --> A              
     e( 36 - 36) =     15.47910  eV     1   --> A              
     e( 37 - 37) =     15.83683  eV     1   --> A              
     e( 38 - 38) =     15.90136  eV     1   --> A              
     e( 39 - 39) =     16.11668  eV     1   --> A              
     e( 40 - 40) =     16.18000  eV     1   --> A              
     e( 41 - 41) =     17.22072  eV     1   --> A              
     e( 42 - 42) =     18.50852  eV     1   --> A              
     e( 43 - 43) =     18.82001  eV     1   --> A              
     e( 44 - 44) =     19.09036  eV     1   --> A              
     e( 45 - 45) =     19.15826  eV     1   --> A              
     e( 46 - 46) =     19.29396  eV     1   --> A              
     e( 47 - 47) =     19.52272  eV     1   --> A              
     e( 48 - 48) =     19.53304  eV     1   --> A              
     e( 49 - 49) =     20.02719  eV     1   --> A              
     e( 50 - 50) =     20.54201  eV     1   --> A              
     e( 51 - 51) =     20.59376  eV     1   --> A              
     e( 52 - 52) =     20.89652  eV     1   --> A              
     e( 53 - 53) =     20.93445  eV     1   --> A              
     e( 54 - 54) =     21.06953  eV     1   --> A              
     e( 55 - 55) =     22.63452  eV     1   --> A              
     e( 56 - 56) =     22.77723  eV     1   --> A              
     e( 57 - 57) =     23.09813  eV     1   --> A              
     e( 58 - 58) =     23.15125  eV     1   --> A              
     e( 59 - 59) =     23.52581  eV     1   --> A              
     e( 60 - 60) =     23.58939  eV     1   --> A              
     e( 61 - 61) =     23.85627  eV     1   --> A              
     e( 62 - 62) =     24.12912  eV     1   --> A              
     e( 63 - 63) =     24.24857  eV     1   --> A              
     e( 64 - 64) =     24.37086  eV     1   --> A              
     e( 65 - 65) =     24.77546  eV     1   --> A              
     e( 66 - 66) =     26.07931  eV     1   --> A              
     e( 67 - 67) =     26.41318  eV     1   --> A              
     e( 68 - 68) =     26.49646  eV     1   --> A              
     e( 69 - 69) =     26.89571  eV     1   --> A              
     e( 70 - 70) =     27.20584  eV     1   --> A              

 **************************************************************************

 **************************************************************************

                    xk=(   0.07701,   0.04434,   0.00000  )

     Band symmetry, C_1 (1)     point group:

     e(  1 -  1) =    -15.89664  eV     1   --> A              
     e(  2 -  2) =    -15.88912  eV     1   --> A              
     e(  3 -  3) =    -15.82326  eV     1   --> A              
     e(  4 -  4) =    -15.81540  eV     1   --> A              
     e(  5 -  5) =     -2.81490  eV     1   --> A              
     e(  6 -  6) =     -2.76392  eV     1   --> A              
     e(  7 -  7) =     -1.01813  eV     1   --> A              
     e(  8 -  8) =     -0.99967  eV     1   --> A              
     e(  9 -  9) =     -0.99404  eV     1   --> A              
     e( 10 - 10) =     -0.98278  eV     1   --> A              
     e( 11 - 11) =     -0.83103  eV     1   --> A              
     e( 12 - 12) =     -0.82706  eV     1   --> A              
     e( 13 - 13) =     -0.78608  eV     1   --> A              
     e( 14 - 14) =     -0.78139  eV     1   --> A              
     e( 15 - 15) =     -0.73380  eV     1   --> A              
     e( 16 - 16) =     -0.52199  eV     1   --> A              
     e( 17 - 17) =      1.63344  eV     1   --> A              
     e( 18 - 18) =      1.93692  eV     1   --> A              
     e( 19 - 19) =      4.25116  eV     1   --> A              
     e( 20 - 20) =      4.72287  eV     1   --> A              
     e( 21 - 21) =      6.38006  eV     1   --> A              
     e( 22 - 22) =      7.05533  eV     1   --> A              
     e( 23 - 23) =      9.04796  eV     1   --> A              
     e( 24 - 24) =     10.08265  eV     1   --> A              
     e( 25 - 25) =     11.06247  eV     1   --> A              
     e( 26 - 26) =     11.10171  eV     1   --> A              
     e( 27 - 27) =     11.44998  eV     1   --> A              
     e( 28 - 28) =     11.75008  eV     1   --> A              
     e( 29 - 29) =     11.76549  eV     1   --> A              
     e( 30 - 30) =     12.68677  eV     1   --> A              
     e( 31 - 31) =     13.03004  eV     1   --> A              
     e( 32 - 32) =     13.40622  eV     1   --> A              
     e( 33 - 33) =     13.46427  eV     1   --> A              
     e( 34 - 34) =     13.50018  eV     1   --> A              
     e( 35 - 35) =     14.51361  eV     1   --> A              
     e( 36 - 36) =     15.42253  eV     1   --> A              
     e( 37 - 37) =     15.79621  eV     1   --> A              
     e( 38 - 38) =     15.85650  eV     1   --> A              
     e( 39 - 39) =     16.06757  eV     1   --> A              
     e( 40 - 40) =     16.10389  eV     1   --> A              
     e( 41 - 41) =     17.40979  eV     1   --> A              
     e( 42 - 42) =     18.54270  eV     1   --> A              
     e( 43 - 43) =     18.73382  eV     1   --> A              
     e( 44 - 44) =     19.01052  eV     1   --> A              
     e( 45 - 45) =     19.24313  eV     1   --> A              
     e( 46 - 46) =     19.36274  eV     1   --> A              
     e( 47 - 47) =     19.65710  eV     1   --> A              
     e( 48 - 48) =     19.66988  eV     1   --> A              
     e( 49 - 49) =     20.36561  eV     1   --> A              
     e( 50 - 50) =     20.39943  eV     1   --> A              
     e( 51 - 51) =     20.50997  eV     1   --> A              
     e( 52 - 52) =     20.78972  eV     1   --> A              
     e( 53 - 53) =     20.87711  eV     1   --> A              
     e( 54 - 54) =     21.37619  eV     1   --> A              
     e( 55 - 55) =     22.42088  eV     1   --> A              
     e( 56 - 56) =     22.67959  eV     1   --> A              
     e( 57 - 57) =     23.17407  eV     1   --> A              
     e( 58 - 58) =     23.27725  eV     1   --> A              
     e( 59 - 59) =     23.53964  eV     1   --> A              
     e( 60 - 60) =     23.71961  eV     1   --> A              
     e( 61 - 61) =     23.91756  eV     1   --> A              
     e( 62 - 62) =     23.97454  eV     1   --> A              
     e( 63 - 63) =     24.05851  eV     1   --> A              
     e( 64 - 64) =     24.35989  eV     1   --> A              
     e( 65 - 65) =     24.77152  eV     1   --> A              
     e( 66 - 66) =     26.28990  eV     1   --> A              
     e( 67 - 67) =     26.29326  eV     1   --> A              
     e( 68 - 68) =     26.47796  eV     1   --> A              
     e( 69 - 69) =     26.99238  eV     1   --> A              
     e( 70 - 70) =     27.29693  eV     1   --> A              

 **************************************************************************

 **************************************************************************

                    xk=(   0.09626,   0.05542,   0.00000  )

     Band symmetry, C_1 (1)     point group:

     e(  1 -  1) =    -15.88050  eV     1   --> A              
     e(  2 -  2) =    -15.87305  eV     1   --> A              
     e(  3 -  3) =    -15.80803  eV     1   --> A              
     e(  4 -  4) =    -15.80023  eV     1   --> A              
     e(  5 -  5) =     -2.79894  eV     1   --> A              
     e(  6 -  6) =     -2.75207  eV     1   --> A              
     e(  7 -  7) =     -1.12283  eV     1   --> A              
     e(  8 -  8) =     -1.11940  eV     1   --> A              
     e(  9 -  9) =     -1.11239  eV     1   --> A              
     e( 10 - 10) =     -1.07344  eV     1   --> A              
     e( 11 - 11) =     -0.85167  eV     1   --> A              
     e( 12 - 12) =     -0.84755  eV     1   --> A              
     e( 13 - 13) =     -0.80532  eV     1   --> A              
     e( 14 - 14) =     -0.80053  eV     1   --> A              
     e( 15 - 15) =     -0.71098  eV     1   --> A              
     e( 16 - 16) =     -0.50001  eV     1   --> A              
     e( 17 - 17) =      1.72196  eV     1   --> A              
     e( 18 - 18) =      2.00661  eV     1   --> A              
     e( 19 - 19) =      4.40063  eV     1   --> A              
     e( 20 - 20) =      4.87339  eV     1   --> A              
     e( 21 - 21) =      6.42835  eV     1   --> A              
     e( 22 - 22) =      7.13164  eV     1   --> A              
     e( 23 - 23) =      9.06589  eV     1   --> A              
     e( 24 - 24) =     10.11137  eV     1   --> A              
     e( 25 - 25) =     10.76528  eV     1   --> A              
     e( 26 - 26) =     10.84531  eV     1   --> A              
     e( 27 - 27) =     11.39034  eV     1   --> A              
     e( 28 - 28) =     11.74807  eV     1   --> A              
     e( 29 - 29) =     11.76180  eV     1   --> A              
     e( 30 - 30) =     12.49364  eV     1   --> A              
     e( 31 - 31) =     12.89415  eV     1   --> A              
     e( 32 - 32) =     13.45714  eV     1   --> A              
     e( 33 - 33) =     13.54396  eV     1   --> A              
     e( 34 - 34) =     13.56587  eV     1   --> A              
     e( 35 - 35) =     14.47052  eV     1   --> A              
     e( 36 - 36) =     15.17697  eV     1   --> A              
     e( 37 - 37) =     15.75487  eV     1   --> A              
     e( 38 - 38) =     15.90083  eV     1   --> A              
     e( 39 - 39) =     16.00617  eV     1   --> A              
     e( 40 - 40) =     16.16101  eV     1   --> A              
     e( 41 - 41) =     17.61066  eV     1   --> A              
     e( 42 - 42) =     18.58399  eV     1   --> A              
     e( 43 - 43) =     18.68693  eV     1   --> A              
     e( 44 - 44) =     18.97301  eV     1   --> A              
     e( 45 - 45) =     19.22968  eV     1   --> A              
     e( 46 - 46) =     19.42999  eV     1   --> A              
     e( 47 - 47) =     19.72909  eV     1   --> A              
     e( 48 - 48) =     19.81997  eV     1   --> A              
     e( 49 - 49) =     20.16909  eV     1   --> A              
     e( 50 - 50) =     20.52590  eV     1   --> A              
     e( 51 - 51) =     20.67411  eV     1   --> A              
     e( 52 - 52) =     20.80470  eV     1   --> A              
     e( 53 - 53) =     20.89719  eV     1   --> A              
     e( 54 - 54) =     21.72532  eV     1   --> A              
     e( 55 - 55) =     22.15736  eV     1   --> A              
     e( 56 - 56) =     22.58989  eV     1   --> A              
     e( 57 - 57) =     23.06061  eV     1   --> A              
     e( 58 - 58) =     23.35723  eV     1   --> A              
     e( 59 - 59) =     23.49127  eV     1   --> A              
     e( 60 - 60) =     23.81499  eV     1   --> A              
     e( 61 - 61) =     23.94588  eV     1   --> A              
     e( 62 - 62) =     24.00170  eV     1   --> A              
     e( 63 - 63) =     24.09728  eV     1   --> A              
     e( 64 - 64) =     24.38090  eV     1   --> A              
     e( 65 - 65) =     24.76468  eV     1   --> A              
     e( 66 - 66) =     26.15237  eV     1   --> A              
     e( 67 - 67) =     26.44075  eV     1   --> A              
     e( 68 - 68) =     26.50386  eV     1   --> A              
     e( 69 - 69) =     27.06689  eV     1   --> A              
     e( 70 - 70) =     27.37035  eV     1   --> A              

 **************************************************************************

 **************************************************************************

                    xk=(   0.11551,   0.06651,   0.00000  )

     Band symmetry, C_1 (1)     point group:

     e(  1 -  1) =    -15.86115  eV     1   --> A              
     e(  2 -  2) =    -15.85377  eV     1   --> A              
     e(  3 -  3) =    -15.78978  eV     1   --> A              
     e(  4 -  4) =    -15.78207  eV     1   --> A              
     e(  5 -  5) =     -2.78386  eV     1   --> A              
     e(  6 -  6) =     -2.74213  eV     1   --> A              
     e(  7 -  7) =     -1.25829  eV     1   --> A              
     e(  8 -  8) =     -1.24948  eV     1   --> A              
     e(  9 -  9) =     -1.22442  eV     1   --> A              
     e( 10 - 10) =     -1.16677  eV     1   --> A              
     e( 11 - 11) =     -0.87731  eV     1   --> A              
     e( 12 - 12) =     -0.87301  eV     1   --> A              
     e( 13 - 13) =     -0.82916  eV     1   --> A              
     e( 14 - 14) =     -0.82429  eV     1   --> A              
     e( 15 - 15) =     -0.68347  eV     1   --> A              
     e( 16 - 16) =     -0.47463  eV     1   --> A              
     e( 17 - 17) =      1.81737  eV     1   --> A              
     e( 18 - 18) =      2.08194  eV     1   --> A              
     e( 19 - 19) =      4.57225  eV     1   --> A              
     e( 20 - 20) =      5.04685  eV     1   --> A              
     e( 21 - 21) =      6.48527  eV     1   --> A              
     e( 22 - 22) =      7.22114  eV     1   --> A              
     e( 23 - 23) =      9.08658  eV     1   --> A              
     e( 24 - 24) =     10.09085  eV     1   --> A              
     e( 25 - 25) =     10.45367  eV     1   --> A              
     e( 26 - 26) =     10.63599  eV     1   --> A              
     e( 27 - 27) =     11.31509  eV     1   --> A              
     e( 28 - 28) =     11.73585  eV     1   --> A              
     e( 29 - 29) =     11.74797  eV     1   --> A              
     e( 30 - 30) =     12.28959  eV     1   --> A              
     e( 31 - 31) =     12.75232  eV     1   --> A              
     e( 32 - 32) =     13.49882  eV     1   --> A              
     e( 33 - 33) =     13.63929  eV     1   --> A              
     e( 34 - 34) =     13.65483  eV     1   --> A              
     e( 35 - 35) =     14.36583  eV     1   --> A              
     e( 36 - 36) =     14.90275  eV     1   --> A              
     e( 37 - 37) =     15.72695  eV     1   --> A              
     e( 38 - 38) =     15.81550  eV     1   --> A              
     e( 39 - 39) =     15.93392  eV     1   --> A              
     e( 40 - 40) =     16.39159  eV     1   --> A              
     e( 41 - 41) =     17.81543  eV     1   --> A              
     e( 42 - 42) =     18.62971  eV     1   --> A              
     e( 43 - 43) =     18.68284  eV     1   --> A              
     e( 44 - 44) =     18.98637  eV     1   --> A              
     e( 45 - 45) =     19.07545  eV     1   --> A              
     e( 46 - 46) =     19.49861  eV     1   --> A              
     e( 47 - 47) =     19.67894  eV     1   --> A              
     e( 48 - 48) =     19.96622  eV     1   --> A              
     e( 49 - 49) =     19.98035  eV     1   --> A              
     e( 50 - 50) =     20.55998  eV     1   --> A              
     e( 51 - 51) =     20.68093  eV     1   --> A              
     e( 52 - 52) =     21.05258  eV     1   --> A              
     e( 53 - 53) =     21.19707  eV     1   --> A              
     e( 54 - 54) =     21.91934  eV     1   --> A              
     e( 55 - 55) =     22.10991  eV     1   --> A              
     e( 56 - 56) =     22.49899  eV     1   --> A              
     e( 57 - 57) =     22.83668  eV     1   --> A              
     e( 58 - 58) =     23.14168  eV     1   --> A              
     e( 59 - 59) =     23.44754  eV     1   --> A              
     e( 60 - 60) =     23.97886  eV     1   --> A              
     e( 61 - 61) =     24.05716  eV     1   --> A              
     e( 62 - 62) =     24.18831  eV     1   --> A              
     e( 63 - 63) =     24.21019  eV     1   --> A              
     e( 64 - 64) =     24.44969  eV     1   --> A              
     e( 65 - 65) =     24.76113  eV     1   --> A              
     e( 66 - 66) =     26.01280  eV     1   --> A              
     e( 67 - 67) =     26.50292  eV     1   --> A              
     e( 68 - 68) =     26.57133  eV     1   --> A              
     e( 69 - 69) =     27.13090  eV     1   --> A              
     e( 70 - 70) =     27.16105  eV     1   --> A              

 **************************************************************************

 **************************************************************************

                    xk=(   0.13476,   0.07759,   0.00000  )

     Band symmetry, C_1 (1)     point group:

     e(  1 -  1) =    -15.83882  eV     1   --> A              
     e(  2 -  2) =    -15.83154  eV     1   --> A              
     e(  3 -  3) =    -15.76872  eV     1   --> A              
     e(  4 -  4) =    -15.76111  eV     1   --> A              
     e(  5 -  5) =     -2.77286  eV     1   --> A              
     e(  6 -  6) =     -2.73726  eV     1   --> A              
     e(  7 -  7) =     -1.40615  eV     1   --> A              
     e(  8 -  8) =     -1.39478  eV     1   --> A              
     e(  9 -  9) =     -1.32663  eV     1   --> A              
     e( 10 - 10) =     -1.25627  eV     1   --> A              
     e( 11 - 11) =     -0.90819  eV     1   --> A              
     e( 12 - 12) =     -0.90369  eV     1   --> A              
     e( 13 - 13) =     -0.85779  eV     1   --> A              
     e( 14 - 14) =     -0.85280  eV     1   --> A              
     e( 15 - 15) =     -0.65161  eV     1   --> A              
     e( 16 - 16) =     -0.44595  eV     1   --> A              
     e( 17 - 17) =      1.91608  eV     1   --> A              
     e( 18 - 18) =      2.15984  eV     1   --> A              
     e( 19 - 19) =      4.76193  eV     1   --> A              
     e( 20 - 20) =      5.23910  eV     1   --> A              
     e( 21 - 21) =      6.54976  eV     1   --> A              
     e( 22 - 22) =      7.32157  eV     1   --> A              
     e( 23 - 23) =      9.10933  eV     1   --> A              
     e( 24 - 24) =      9.94374  eV     1   --> A              
     e( 25 - 25) =     10.13689  eV     1   --> A              
     e( 26 - 26) =     10.55944  eV     1   --> A              
     e( 27 - 27) =     11.22392  eV     1   --> A              
     e( 28 - 28) =     11.70677  eV     1   --> A              
     e( 29 - 29) =     11.72059  eV     1   --> A              
     e( 30 - 30) =     12.08055  eV     1   --> A              
     e( 31 - 31) =     12.61250  eV     1   --> A              
     e( 32 - 32) =     13.53442  eV     1   --> A              
     e( 33 - 33) =     13.74881  eV     1   --> A              
     e( 34 - 34) =     13.76386  eV     1   --> A              
     e( 35 - 35) =     14.22917  eV     1   --> A              
     e( 36 - 36) =     14.62665  eV     1   --> A              
     e( 37 - 37) =     15.61836  eV     1   --> A              
     e( 38 - 38) =     15.71380  eV     1   --> A              
     e( 39 - 39) =     15.96607  eV     1   --> A              
     e( 40 - 40) =     16.62325  eV     1   --> A              
     e( 41 - 41) =     18.01173  eV     1   --> A              
     e( 42 - 42) =     18.67494  eV     1   --> A              
     e( 43 - 43) =     18.71269  eV     1   --> A              
     e( 44 - 44) =     18.81467  eV     1   --> A              
     e( 45 - 45) =     19.05019  eV     1   --> A              
     e( 46 - 46) =     19.52022  eV     1   --> A              
     e( 47 - 47) =     19.57377  eV     1   --> A              
     e( 48 - 48) =     19.76574  eV     1   --> A              
     e( 49 - 49) =     20.15459  eV     1   --> A              
     e( 50 - 50) =     20.45573  eV     1   --> A              
     e( 51 - 51) =     20.93655  eV     1   --> A              
     e( 52 - 52) =     21.33147  eV     1   --> A              
     e( 53 - 53) =     21.36074  eV     1   --> A              
     e( 54 - 54) =     21.92989  eV     1   --> A              
     e( 55 - 55) =     22.36644  eV     1   --> A              
     e( 56 - 56) =     22.52257  eV     1   --> A              
     e( 57 - 57) =     22.61656  eV     1   --> A              
     e( 58 - 58) =     22.83881  eV     1   --> A              
     e( 59 - 59) =     23.40882  eV     1   --> A              
     e( 60 - 60) =     24.13887  eV     1   --> A              
     e( 61 - 61) =     24.16555  eV     1   --> A              
     e( 62 - 62) =     24.30011  eV     1   --> A              
     e( 63 - 63) =     24.42729  eV     1   --> A              
     e( 64 - 64) =     24.60171  eV     1   --> A              
     e( 65 - 65) =     24.77366  eV     1   --> A              
     e( 66 - 66) =     25.88548  eV     1   --> A              
     e( 67 - 67) =     26.50593  eV     1   --> A              
     e( 68 - 68) =     26.67021  eV     1   --> A              
     e( 69 - 69) =     26.91036  eV     1   --> A              
     e( 70 - 70) =     27.07513  eV     1   --> A              

 **************************************************************************

 **************************************************************************

                    xk=(   0.15401,   0.08868,   0.00000  )

     Band symmetry, C_1 (1)     point group:

     e(  1 -  1) =    -15.81376  eV     1   --> A              
     e(  2 -  2) =    -15.80659  eV     1   --> A              
     e(  3 -  3) =    -15.74511  eV     1   --> A              
     e(  4 -  4) =    -15.73760  eV     1   --> A              
     e(  5 -  5) =     -2.77004  eV     1   --> A              
     e(  6 -  6) =     -2.74114  eV     1   --> A              
     e(  7 -  7) =     -1.56082  eV     1   --> A              
     e(  8 -  8) =     -1.54707  eV     1   --> A              
     e(  9 -  9) =     -1.41700  eV     1   --> A              
     e( 10 - 10) =     -1.33461  eV     1   --> A              
     e( 11 - 11) =     -0.94453  eV     1   --> A              
     e( 12 - 12) =     -0.93981  eV     1   --> A              
     e( 13 - 13) =     -0.89137  eV     1   --> A              
     e( 14 - 14) =     -0.88619  eV     1   --> A              
     e( 15 - 15) =     -0.61574  eV     1   --> A              
     e( 16 - 16) =     -0.41407  eV     1   --> A              
     e( 17 - 17) =      2.01535  eV     1   --> A              
     e( 18 - 18) =      2.23798  eV     1   --> A              
     e( 19 - 19) =      4.96608  eV     1   --> A              
     e( 20 - 20) =      5.44646  eV     1   --> A              
     e( 21 - 21) =      6.62075  eV     1   --> A              
     e( 22 - 22) =      7.43014  eV     1   --> A              
     e( 23 - 23) =      9.13337  eV     1   --> A              
     e( 24 - 24) =      9.69169  eV     1   --> A              
     e( 25 - 25) =      9.82164  eV     1   --> A              
     e( 26 - 26) =     10.59921  eV     1   --> A              
     e( 27 - 27) =     11.11755  eV     1   --> A              
     e( 28 - 28) =     11.65438  eV     1   --> A              
     e( 29 - 29) =     11.67726  eV     1   --> A              
     e( 30 - 30) =     11.87190  eV     1   --> A              
     e( 31 - 31) =     12.48054  eV     1   --> A              
     e( 32 - 32) =     13.56845  eV     1   --> A              
     e( 33 - 33) =     13.87058  eV     1   --> A              
     e( 34 - 34) =     13.88731  eV     1   --> A              
     e( 35 - 35) =     14.08504  eV     1   --> A              
     e( 36 - 36) =     14.35536  eV     1   --> A              
     e( 37 - 37) =     15.46748  eV     1   --> A              
     e( 38 - 38) =     15.62004  eV     1   --> A              
     e( 39 - 39) =     16.05836  eV     1   --> A              
     e( 40 - 40) =     16.83290  eV     1   --> A              
     e( 41 - 41) =     18.18946  eV     1   --> A              
     e( 42 - 42) =     18.49497  eV     1   --> A              
     e( 43 - 43) =     18.70809  eV     1   --> A              
     e( 44 - 44) =     18.75186  eV     1   --> A              
     e( 45 - 45) =     19.15252  eV     1   --> A              
     e( 46 - 46) =     19.30624  eV     1   --> A              
     e( 47 - 47) =     19.57033  eV     1   --> A              
     e( 48 - 48) =     19.66450  eV     1   --> A              
     e( 49 - 49) =     20.35427  eV     1   --> A              
     e( 50 - 50) =     20.36880  eV     1   --> A              
     e( 51 - 51) =     21.20186  eV     1   --> A              
     e( 52 - 52) =     21.22430  eV     1   --> A              
     e( 53 - 53) =     21.68891  eV     1   --> A              
     e( 54 - 54) =     22.16289  eV     1   --> A              
     e( 55 - 55) =     22.23328  eV     1   --> A              
     e( 56 - 56) =     22.48715  eV     1   --> A              
     e( 57 - 57) =     22.58954  eV     1   --> A              
     e( 58 - 58) =     22.95467  eV     1   --> A              
     e( 59 - 59) =     23.37338  eV     1   --> A              
     e( 60 - 60) =     24.19044  eV     1   --> A              
     e( 61 - 61) =     24.28980  eV     1   --> A              
     e( 62 - 62) =     24.35678  eV     1   --> A              
     e( 63 - 63) =     24.63804  eV     1   --> A              
     e( 64 - 64) =     24.81884  eV     1   --> A              
     e( 65 - 65) =     24.83940  eV     1   --> A              
     e( 66 - 66) =     25.78949  eV     1   --> A              
     e( 67 - 67) =     26.48992  eV     1   --> A              
     e( 68 - 68) =     26.62999  eV     1   --> A              
     e( 69 - 69) =     26.78395  eV     1   --> A              
     e( 70 - 70) =     26.96406  eV     1   --> A              

 **************************************************************************

 **************************************************************************

                    xk=(   0.17326,   0.09976,   0.00000  )

     Band symmetry, C_1 (1)     point group:

     e(  1 -  1) =    -15.78630  eV     1   --> A              
     e(  2 -  2) =    -15.77924  eV     1   --> A              
     e(  3 -  3) =    -15.71923  eV     1   --> A              
     e(  4 -  4) =    -15.71183  eV     1   --> A              
     e(  5 -  5) =     -2.77988  eV     1   --> A              
     e(  6 -  6) =     -2.75757  eV     1   --> A              
     e(  7 -  7) =     -1.71867  eV     1   --> A              
     e(  8 -  8) =     -1.70276  eV     1   --> A              
     e(  9 -  9) =     -1.48841  eV     1   --> A              
     e( 10 - 10) =     -1.39517  eV     1   --> A              
     e( 11 - 11) =     -0.98661  eV     1   --> A              
     e( 12 - 12) =     -0.98163  eV     1   --> A              
     e( 13 - 13) =     -0.93010  eV     1   --> A              
     e( 14 - 14) =     -0.92469  eV     1   --> A              
     e( 15 - 15) =     -0.57631  eV     1   --> A              
     e( 16 - 16) =     -0.37937  eV     1   --> A              
     e( 17 - 17) =      2.11312  eV     1   --> A              
     e( 18 - 18) =      2.31455  eV     1   --> A              
     e( 19 - 19) =      5.18172  eV     1   --> A              
     e( 20 - 20) =      5.66569  eV     1   --> A              
     e( 21 - 21) =      6.69716  eV     1   --> A              
     e( 22 - 22) =      7.54327  eV     1   --> A              
     e( 23 - 23) =      9.15787  eV     1   --> A              
     e( 24 - 24) =      9.40438  eV     1   --> A              
     e( 25 - 25) =      9.51347  eV     1   --> A              
     e( 26 - 26) =     10.68826  eV     1   --> A              
     e( 27 - 27) =     10.99799  eV     1   --> A              
     e( 28 - 28) =     11.57609  eV     1   --> A              
     e( 29 - 29) =     11.61571  eV     1   --> A              
     e( 30 - 30) =     11.66827  eV     1   --> A              
     e( 31 - 31) =     12.35994  eV     1   --> A              
     e( 32 - 32) =     13.60348  eV     1   --> A              
     e( 33 - 33) =     13.94455  eV     1   --> A              
     e( 34 - 34) =     14.00215  eV     1   --> A              
     e( 35 - 35) =     14.02042  eV     1   --> A              
     e( 36 - 36) =     14.09040  eV     1   --> A              
     e( 37 - 37) =     15.31888  eV     1   --> A              
     e( 38 - 38) =     15.54883  eV     1   --> A              
     e( 39 - 39) =     16.17131  eV     1   --> A              
     e( 40 - 40) =     17.01588  eV     1   --> A              
     e( 41 - 41) =     18.14555  eV     1   --> A              
     e( 42 - 42) =     18.34725  eV     1   --> A              
     e( 43 - 43) =     18.69136  eV     1   --> A              
     e( 44 - 44) =     18.76407  eV     1   --> A              
     e( 45 - 45) =     19.10224  eV     1   --> A              
     e( 46 - 46) =     19.27124  eV     1   --> A              
     e( 47 - 47) =     19.38235  eV     1   --> A              
     e( 48 - 48) =     19.78128  eV     1   --> A              
     e( 49 - 49) =     20.30556  eV     1   --> A              
     e( 50 - 50) =     20.59096  eV     1   --> A              
     e( 51 - 51) =     21.00775  eV     1   --> A              
     e( 52 - 52) =     21.40524  eV     1   --> A              
     e( 53 - 53) =     22.05278  eV     1   --> A              
     e( 54 - 54) =     22.09292  eV     1   --> A              
     e( 55 - 55) =     22.13732  eV     1   --> A              
     e( 56 - 56) =     22.40664  eV     1   --> A              
     e( 57 - 57) =     22.82992  eV     1   --> A              
     e( 58 - 58) =     23.33851  eV     1   --> A              
     e( 59 - 59) =     23.39524  eV     1   --> A              
     e( 60 - 60) =     24.19300  eV     1   --> A              
     e( 61 - 61) =     24.37513  eV     1   --> A              
     e( 62 - 62) =     24.38599  eV     1   --> A              
     e( 63 - 63) =     24.79022  eV     1   --> A              
     e( 64 - 64) =     24.90047  eV     1   --> A              
     e( 65 - 65) =     25.10752  eV     1   --> A              
     e( 66 - 66) =     25.75021  eV     1   --> A              
     e( 67 - 67) =     26.33035  eV     1   --> A              
     e( 68 - 68) =     26.48282  eV     1   --> A              
     e( 69 - 69) =     26.88863  eV     1   --> A              
     e( 70 - 70) =     26.89381  eV     1   --> A              

 **************************************************************************

 **************************************************************************

                    xk=(   0.19251,   0.11085,   0.00000  )

     Band symmetry, C_1 (1)     point group:

     e(  1 -  1) =    -15.75675  eV     1   --> A              
     e(  2 -  2) =    -15.74982  eV     1   --> A              
     e(  3 -  3) =    -15.69138  eV     1   --> A              
     e(  4 -  4) =    -15.68411  eV     1   --> A              
     e(  5 -  5) =     -2.80613  eV     1   --> A              
     e(  6 -  6) =     -2.78932  eV     1   --> A              
     e(  7 -  7) =     -1.87655  eV     1   --> A              
     e(  8 -  8) =     -1.85877  eV     1   --> A              
     e(  9 -  9) =     -1.53483  eV     1   --> A              
     e( 10 - 10) =     -1.43271  eV     1   --> A              
     e( 11 - 11) =     -1.03463  eV     1   --> A              
     e( 12 - 12) =     -1.02936  eV     1   --> A              
     e( 13 - 13) =     -0.97411  eV     1   --> A              
     e( 14 - 14) =     -0.96842  eV     1   --> A              
     e( 15 - 15) =     -0.53372  eV     1   --> A              
     e( 16 - 16) =     -0.34215  eV     1   --> A              
     e( 17 - 17) =      2.20791  eV     1   --> A              
     e( 18 - 18) =      2.38836  eV     1   --> A              
     e( 19 - 19) =      5.40640  eV     1   --> A              
     e( 20 - 20) =      5.89407  eV     1   --> A              
     e( 21 - 21) =      6.77789  eV     1   --> A              
     e( 22 - 22) =      7.65579  eV     1   --> A              
     e( 23 - 23) =      9.11037  eV     1   --> A              
     e( 24 - 24) =      9.18194  eV     1   --> A              
     e( 25 - 25) =      9.21822  eV     1   --> A              
     e( 26 - 26) =     10.79769  eV     1   --> A              
     e( 27 - 27) =     10.86855  eV     1   --> A              
     e( 28 - 28) =     11.47266  eV     1   --> A              
     e( 29 - 29) =     11.47366  eV     1   --> A              
     e( 30 - 30) =     11.53745  eV     1   --> A              
     e( 31 - 31) =     12.25209  eV     1   --> A              
     e( 32 - 32) =     13.64090  eV     1   --> A              
     e( 33 - 33) =     13.80747  eV     1   --> A              
     e( 34 - 34) =     13.83166  eV     1   --> A              
     e( 35 - 35) =     14.14049  eV     1   --> A              
     e( 36 - 36) =     14.15830  eV     1   --> A              
     e( 37 - 37) =     15.19504  eV     1   --> A              
     e( 38 - 38) =     15.51000  eV     1   --> A              
     e( 39 - 39) =     16.29391  eV     1   --> A              
     e( 40 - 40) =     17.17319  eV     1   --> A              
     e( 41 - 41) =     17.78269  eV     1   --> A              
     e( 42 - 42) =     18.49093  eV     1   --> A              
     e( 43 - 43) =     18.54162  eV     1   --> A              
     e( 44 - 44) =     18.72073  eV     1   --> A              
     e( 45 - 45) =     19.00516  eV     1   --> A              
     e( 46 - 46) =     19.20230  eV     1   --> A              
     e( 47 - 47) =     19.38352  eV     1   --> A              
     e( 48 - 48) =     19.92237  eV     1   --> A              
     e( 49 - 49) =     20.27204  eV     1   --> A              
     e( 50 - 50) =     20.83933  eV     1   --> A              
     e( 51 - 51) =     20.86942  eV     1   --> A              
     e( 52 - 52) =     21.29993  eV     1   --> A              
     e( 53 - 53) =     21.89897  eV     1   --> A              
     e( 54 - 54) =     22.17638  eV     1   --> A              
     e( 55 - 55) =     22.40242  eV     1   --> A              
     e( 56 - 56) =     22.52166  eV     1   --> A              
     e( 57 - 57) =     23.26019  eV     1   --> A              
     e( 58 - 58) =     23.30356  eV     1   --> A              
     e( 59 - 59) =     23.82922  eV     1   --> A              
     e( 60 - 60) =     24.15787  eV     1   --> A              
     e( 61 - 61) =     24.35922  eV     1   --> A              
     e( 62 - 62) =     24.48272  eV     1   --> A              
     e( 63 - 63) =     24.86384  eV     1   --> A              
     e( 64 - 64) =     25.00308  eV     1   --> A              
     e( 65 - 65) =     25.36706  eV     1   --> A              
     e( 66 - 66) =     25.78567  eV     1   --> A              
     e( 67 - 67) =     26.02391  eV     1   --> A              
     e( 68 - 68) =     26.49653  eV     1   --> A              
     e( 69 - 69) =     26.84908  eV     1   --> A              
     e( 70 - 70) =     26.99288  eV     1   --> A              

 **************************************************************************

 **************************************************************************

                    xk=(   0.21177,   0.12193,   0.00000  )

     Band symmetry, C_1 (1)     point group:

     e(  1 -  1) =    -15.72547  eV     1   --> A              
     e(  2 -  2) =    -15.71869  eV     1   --> A              
     e(  3 -  3) =    -15.66194  eV     1   --> A              
     e(  4 -  4) =    -15.65479  eV     1   --> A              
     e(  5 -  5) =     -2.85017  eV     1   --> A              
     e(  6 -  6) =     -2.83714  eV     1   --> A              
     e(  7 -  7) =     -2.03188  eV     1   --> A              
     e(  8 -  8) =     -2.01248  eV     1   --> A              
     e(  9 -  9) =     -1.55290  eV     1   --> A              
     e( 10 - 10) =     -1.44468  eV     1   --> A              
     e( 11 - 11) =     -1.08880  eV     1   --> A              
     e( 12 - 12) =     -1.08317  eV     1   --> A              
     e( 13 - 13) =     -1.02356  eV     1   --> A              
     e( 14 - 14) =     -1.01750  eV     1   --> A              
     e( 15 - 15) =     -0.48855  eV     1   --> A              
     e( 16 - 16) =     -0.30278  eV     1   --> A              
     e( 17 - 17) =      2.29869  eV     1   --> A              
     e( 18 - 18) =      2.45858  eV     1   --> A              
     e( 19 - 19) =      5.63815  eV     1   --> A              
     e( 20 - 20) =      6.12935  eV     1   --> A              
     e( 21 - 21) =      6.86173  eV     1   --> A              
     e( 22 - 22) =      7.75876  eV     1   --> A              
     e( 23 - 23) =      8.82033  eV     1   --> A              
     e( 24 - 24) =      8.94456  eV     1   --> A              
     e( 25 - 25) =      9.20470  eV     1   --> A              
     e( 26 - 26) =     10.73331  eV     1   --> A              
     e( 27 - 27) =     10.91018  eV     1   --> A              
     e( 28 - 28) =     11.29136  eV     1   --> A              
     e( 29 - 29) =     11.34792  eV     1   --> A              
     e( 30 - 30) =     11.45263  eV     1   --> A              
     e( 31 - 31) =     12.15688  eV     1   --> A              
     e( 32 - 32) =     13.57764  eV     1   --> A              
     e( 33 - 33) =     13.66855  eV     1   --> A              
     e( 34 - 34) =     13.68142  eV     1   --> A              
     e( 35 - 35) =     14.28191  eV     1   --> A              
     e( 36 - 36) =     14.29558  eV     1   --> A              
     e( 37 - 37) =     15.11153  eV     1   --> A              
     e( 38 - 38) =     15.50782  eV     1   --> A              
     e( 39 - 39) =     16.42237  eV     1   --> A              
     e( 40 - 40) =     17.30588  eV     1   --> A              
     e( 41 - 41) =     17.41637  eV     1   --> A              
     e( 42 - 42) =     18.28104  eV     1   --> A              
     e( 43 - 43) =     18.61955  eV     1   --> A              
     e( 44 - 44) =     18.62810  eV     1   --> A              
     e( 45 - 45) =     19.00054  eV     1   --> A              
     e( 46 - 46) =     19.03043  eV     1   --> A              
     e( 47 - 47) =     19.47598  eV     1   --> A              
     e( 48 - 48) =     20.04978  eV     1   --> A              
     e( 49 - 49) =     20.27202  eV     1   --> A              
     e( 50 - 50) =     20.71062  eV     1   --> A              
     e( 51 - 51) =     21.07232  eV     1   --> A              
     e( 52 - 52) =     21.18336  eV     1   --> A              
     e( 53 - 53) =     21.72358  eV     1   --> A              
     e( 54 - 54) =     22.14510  eV     1   --> A              
     e( 55 - 55) =     22.69158  eV     1   --> A              
     e( 56 - 56) =     22.93341  eV     1   --> A              
     e( 57 - 57) =     23.29288  eV     1   --> A              
     e( 58 - 58) =     23.68188  eV     1   --> A              
     e( 59 - 59) =     24.10337  eV     1   --> A              
     e( 60 - 60) =     24.22843  eV     1   --> A              
     e( 61 - 61) =     24.32034  eV     1   --> A              
     e( 62 - 62) =     24.59492  eV     1   --> A              
     e( 63 - 63) =     24.88347  eV     1   --> A              
     e( 64 - 64) =     25.10945  eV     1   --> A              
     e( 65 - 65) =     25.59618  eV     1   --> A              
     e( 66 - 66) =     25.71639  eV     1   --> A              
     e( 67 - 67) =     25.88968  eV     1   --> A              
     e( 68 - 68) =     26.53041  eV     1   --> A              
     e( 69 - 69) =     26.83856  eV     1   --> A              
     e( 70 - 70) =     27.09573  eV     1   --> A              

 **************************************************************************

 **************************************************************************

                    xk=(   0.23102,   0.13302,   0.00000  )

     Band symmetry, C_1 (1)     point group:

     e(  1 -  1) =    -15.69287  eV     1   --> A              
     e(  2 -  2) =    -15.68623  eV     1   --> A              
     e(  3 -  3) =    -15.63125  eV     1   --> A              
     e(  4 -  4) =    -15.62423  eV     1   --> A              
     e(  5 -  5) =     -2.91023  eV     1   --> A              
     e(  6 -  6) =     -2.89924  eV     1   --> A              
     e(  7 -  7) =     -2.18231  eV     1   --> A              
     e(  8 -  8) =     -2.16147  eV     1   --> A              
     e(  9 -  9) =     -1.54297  eV     1   --> A              
     e( 10 - 10) =     -1.43148  eV     1   --> A              
     e( 11 - 11) =     -1.14925  eV     1   --> A              
     e( 12 - 12) =     -1.14321  eV     1   --> A              
     e( 13 - 13) =     -1.07853  eV     1   --> A              
     e( 14 - 14) =     -1.07206  eV     1   --> A              
     e( 15 - 15) =     -0.44129  eV     1   --> A              
     e( 16 - 16) =     -0.26180  eV     1   --> A              
     e( 17 - 17) =      2.38469  eV     1   --> A              
     e( 18 - 18) =      2.52480  eV     1   --> A              
     e( 19 - 19) =      5.87544  eV     1   --> A              
     e( 20 - 20) =      6.36965  eV     1   --> A              
     e( 21 - 21) =      6.94707  eV     1   --> A              
     e( 22 - 22) =      7.83351  eV     1   --> A              
     e( 23 - 23) =      8.53980  eV     1   --> A              
     e( 24 - 24) =      8.71035  eV     1   --> A              
     e( 25 - 25) =      9.22532  eV     1   --> A              
     e( 26 - 26) =     10.59658  eV     1   --> A              
     e( 27 - 27) =     10.99244  eV     1   --> A              
     e( 28 - 28) =     11.12428  eV     1   --> A              
     e( 29 - 29) =     11.20795  eV     1   --> A              
     e( 30 - 30) =     11.39420  eV     1   --> A              
     e( 31 - 31) =     12.07340  eV     1   --> A              
     e( 32 - 32) =     13.33035  eV     1   --> A              
     e( 33 - 33) =     13.52037  eV     1   --> A              
     e( 34 - 34) =     13.72519  eV     1   --> A              
     e( 35 - 35) =     14.42185  eV     1   --> A              
     e( 36 - 36) =     14.42601  eV     1   --> A              
     e( 37 - 37) =     15.07670  eV     1   --> A              
     e( 38 - 38) =     15.54080  eV     1   --> A              
     e( 39 - 39) =     16.55502  eV     1   --> A              
     e( 40 - 40) =     17.05362  eV     1   --> A              
     e( 41 - 41) =     17.40983  eV     1   --> A              
     e( 42 - 42) =     17.98414  eV     1   --> A              
     e( 43 - 43) =     18.48626  eV     1   --> A              
     e( 44 - 44) =     18.76174  eV     1   --> A              
     e( 45 - 45) =     18.86600  eV     1   --> A              
     e( 46 - 46) =     19.02042  eV     1   --> A              
     e( 47 - 47) =     19.54648  eV     1   --> A              
     e( 48 - 48) =     20.06357  eV     1   --> A              
     e( 49 - 49) =     20.30631  eV     1   --> A              
     e( 50 - 50) =     20.68076  eV     1   --> A              
     e( 51 - 51) =     20.83891  eV     1   --> A              
     e( 52 - 52) =     21.51655  eV     1   --> A              
     e( 53 - 53) =     21.64049  eV     1   --> A              
     e( 54 - 54) =     22.02985  eV     1   --> A              
     e( 55 - 55) =     23.08223  eV     1   --> A              
     e( 56 - 56) =     23.08946  eV     1   --> A              
     e( 57 - 57) =     23.52803  eV     1   --> A              
     e( 58 - 58) =     24.04237  eV     1   --> A              
     e( 59 - 59) =     24.06069  eV     1   --> A              
     e( 60 - 60) =     24.27873  eV     1   --> A              
     e( 61 - 61) =     24.50901  eV     1   --> A              
     e( 62 - 62) =     24.73535  eV     1   --> A              
     e( 63 - 63) =     24.94289  eV     1   --> A              
     e( 64 - 64) =     25.21028  eV     1   --> A              
     e( 65 - 65) =     25.43978  eV     1   --> A              
     e( 66 - 66) =     25.77660  eV     1   --> A              
     e( 67 - 67) =     26.01888  eV     1   --> A              
     e( 68 - 68) =     26.57392  eV     1   --> A              
     e( 69 - 69) =     26.84565  eV     1   --> A              
     e( 70 - 70) =     27.22997  eV     1   --> A              

 **************************************************************************

 **************************************************************************

                    xk=(   0.25027,   0.14410,   0.00000  )

     Band symmetry, C_1 (1)     point group:

     e(  1 -  1) =    -15.65934  eV     1   --> A              
     e(  2 -  2) =    -15.65285  eV     1   --> A              
     e(  3 -  3) =    -15.59969  eV     1   --> A              
     e(  4 -  4) =    -15.59282  eV     1   --> A              
     e(  5 -  5) =     -2.98210  eV     1   --> A              
     e(  6 -  6) =     -2.97178  eV     1   --> A              
     e(  7 -  7) =     -2.32585  eV     1   --> A              
     e(  8 -  8) =     -2.30390  eV     1   --> A              
     e(  9 -  9) =     -1.50819  eV     1   --> A              
     e( 10 - 10) =     -1.39575  eV     1   --> A              
     e( 11 - 11) =     -1.21602  eV     1   --> A              
     e( 12 - 12) =     -1.20955  eV     1   --> A              
     e( 13 - 13) =     -1.13901  eV     1   --> A              
     e( 14 - 14) =     -1.13211  eV     1   --> A              
     e( 15 - 15) =     -0.39253  eV     1   --> A              
     e( 16 - 16) =     -0.21961  eV     1   --> A              
     e( 17 - 17) =      2.46545  eV     1   --> A              
     e( 18 - 18) =      2.58685  eV     1   --> A              
     e( 19 - 19) =      6.11706  eV     1   --> A              
     e( 20 - 20) =      6.61339  eV     1   --> A              
     e( 21 - 21) =      7.03129  eV     1   --> A              
     e( 22 - 22) =      7.84062  eV     1   --> A              
     e( 23 - 23) =      8.27350  eV     1   --> A              
     e( 24 - 24) =      8.55358  eV     1   --> A              
     e( 25 - 25) =      9.24306  eV     1   --> A              
     e( 26 - 26) =     10.46234  eV     1   --> A              
     e( 27 - 27) =     10.97474  eV     1   --> A              
     e( 28 - 28) =     10.98146  eV     1   --> A              
     e( 29 - 29) =     11.06002  eV     1   --> A              
     e( 30 - 30) =     11.42711  eV     1   --> A              
     e( 31 - 31) =     12.00060  eV     1   --> A              
     e( 32 - 32) =     13.09124  eV     1   --> A              
     e( 33 - 33) =     13.36231  eV     1   --> A              
     e( 34 - 34) =     13.77161  eV     1   --> A              
     e( 35 - 35) =     14.54121  eV     1   --> A              
     e( 36 - 36) =     14.55602  eV     1   --> A              
     e( 37 - 37) =     15.09047  eV     1   --> A              
     e( 38 - 38) =     15.60236  eV     1   --> A              
     e( 39 - 39) =     16.69071  eV     1   --> A              
     e( 40 - 40) =     16.70030  eV     1   --> A              
     e( 41 - 41) =     17.47002  eV     1   --> A              
     e( 42 - 42) =     17.67756  eV     1   --> A              
     e( 43 - 43) =     18.35953  eV     1   --> A              
     e( 44 - 44) =     18.70838  eV     1   --> A              
     e( 45 - 45) =     18.89489  eV     1   --> A              
     e( 46 - 46) =     19.04575  eV     1   --> A              
     e( 47 - 47) =     19.59885  eV     1   --> A              
     e( 48 - 48) =     19.90970  eV     1   --> A              
     e( 49 - 49) =     20.37192  eV     1   --> A              
     e( 50 - 50) =     20.62930  eV     1   --> A              
     e( 51 - 51) =     20.78540  eV     1   --> A              
     e( 52 - 52) =     21.64076  eV     1   --> A              
     e( 53 - 53) =     21.84641  eV     1   --> A              
     e( 54 - 54) =     21.88897  eV     1   --> A              
     e( 55 - 55) =     23.03271  eV     1   --> A              
     e( 56 - 56) =     23.48030  eV     1   --> A              
     e( 57 - 57) =     23.91901  eV     1   --> A              
     e( 58 - 58) =     23.98588  eV     1   --> A              
     e( 59 - 59) =     24.28717  eV     1   --> A              
     e( 60 - 60) =     24.36331  eV     1   --> A              
     e( 61 - 61) =     24.55754  eV     1   --> A              
     e( 62 - 62) =     24.92199  eV     1   --> A              
     e( 63 - 63) =     25.09399  eV     1   --> A              
     e( 64 - 64) =     25.26424  eV     1   --> A              
     e( 65 - 65) =     25.30282  eV     1   --> A              
     e( 66 - 66) =     25.89974  eV     1   --> A              
     e( 67 - 67) =     26.16828  eV     1   --> A              
     e( 68 - 68) =     26.61283  eV     1   --> A              
     e( 69 - 69) =     26.85705  eV     1   --> A              
     e( 70 - 70) =     27.41708  eV     1   --> A              

 **************************************************************************

 **************************************************************************

                    xk=(   0.26952,   0.15519,   0.00000  )

     Band symmetry, C_1 (1)     point group:

     e(  1 -  1) =    -15.62531  eV     1   --> A              
     e(  2 -  2) =    -15.61897  eV     1   --> A              
     e(  3 -  3) =    -15.56768  eV     1   --> A              
     e(  4 -  4) =    -15.56095  eV     1   --> A              
     e(  5 -  5) =     -3.06067  eV     1   --> A              
     e(  6 -  6) =     -3.05006  eV     1   --> A              
     e(  7 -  7) =     -2.46083  eV     1   --> A              
     e(  8 -  8) =     -2.43799  eV     1   --> A              
     e(  9 -  9) =     -1.45310  eV     1   --> A              
     e( 10 - 10) =     -1.34144  eV     1   --> A              
     e( 11 - 11) =     -1.28915  eV     1   --> A              
     e( 12 - 12) =     -1.28213  eV     1   --> A              
     e( 13 - 13) =     -1.20500  eV     1   --> A              
     e( 14 - 14) =     -1.19760  eV     1   --> A              
     e( 15 - 15) =     -0.34288  eV     1   --> A              
     e( 16 - 16) =     -0.17673  eV     1   --> A              
     e( 17 - 17) =      2.54079  eV     1   --> A              
     e( 18 - 18) =      2.64477  eV     1   --> A              
     e( 19 - 19) =      6.36204  eV     1   --> A              
     e( 20 - 20) =      6.85930  eV     1   --> A              
     e( 21 - 21) =      7.10870  eV     1   --> A              
     e( 22 - 22) =      7.74167  eV     1   --> A              
     e( 23 - 23) =      8.02823  eV     1   --> A              
     e( 24 - 24) =      8.51082  eV     1   --> A              
     e( 25 - 25) =      9.25738  eV     1   --> A              
     e( 26 - 26) =     10.33397  eV     1   --> A              
     e( 27 - 27) =     10.84467  eV     1   --> A              
     e( 28 - 28) =     10.88269  eV     1   --> A              
     e( 29 - 29) =     10.91154  eV     1   --> A              
     e( 30 - 30) =     11.54714  eV     1   --> A              
     e( 31 - 31) =     11.93759  eV     1   --> A              
     e( 32 - 32) =     12.86429  eV     1   --> A              
     e( 33 - 33) =     13.19803  eV     1   --> A              
     e( 34 - 34) =     13.81889  eV     1   --> A              
     e( 35 - 35) =     14.63394  eV     1   --> A              
     e( 36 - 36) =     14.67735  eV     1   --> A              
     e( 37 - 37) =     15.14627  eV     1   --> A              
     e( 38 - 38) =     15.68164  eV     1   --> A              
     e( 39 - 39) =     16.36221  eV     1   --> A              
     e( 40 - 40) =     16.82829  eV     1   --> A              
     e( 41 - 41) =     17.37124  eV     1   --> A              
     e( 42 - 42) =     17.46192  eV     1   --> A              
     e( 43 - 43) =     18.28612  eV     1   --> A              
     e( 44 - 44) =     18.55748  eV     1   --> A              
     e( 45 - 45) =     19.02552  eV     1   --> A              
     e( 46 - 46) =     19.07544  eV     1   --> A              
     e( 47 - 47) =     19.63959  eV     1   --> A              
     e( 48 - 48) =     19.67264  eV     1   --> A              
     e( 49 - 49) =     20.45448  eV     1   --> A              
     e( 50 - 50) =     20.46237  eV     1   --> A              
     e( 51 - 51) =     20.94547  eV     1   --> A              
     e( 52 - 52) =     21.69532  eV     1   --> A              
     e( 53 - 53) =     21.73253  eV     1   --> A              
     e( 54 - 54) =     22.14479  eV     1   --> A              
     e( 55 - 55) =     22.94201  eV     1   --> A              
     e( 56 - 56) =     23.78387  eV     1   --> A              
     e( 57 - 57) =     24.01571  eV     1   --> A              
     e( 58 - 58) =     24.07743  eV     1   --> A              
     e( 59 - 59) =     24.47918  eV     1   --> A              
     e( 60 - 60) =     24.56141  eV     1   --> A              
     e( 61 - 61) =     24.56566  eV     1   --> A              
     e( 62 - 62) =     24.99290  eV     1   --> A              
     e( 63 - 63) =     25.15846  eV     1   --> A              
     e( 64 - 64) =     25.38668  eV     1   --> A              
     e( 65 - 65) =     25.43751  eV     1   --> A              
     e( 66 - 66) =     25.98672  eV     1   --> A              
     e( 67 - 67) =     26.34184  eV     1   --> A              
     e( 68 - 68) =     26.63971  eV     1   --> A              
     e( 69 - 69) =     26.85946  eV     1   --> A              
     e( 70 - 70) =     27.64758  eV     1   --> A              

 **************************************************************************

 **************************************************************************

                    xk=(   0.28877,   0.16627,   0.00000  )

     Band symmetry, C_1 (1)     point group:

     e(  1 -  1) =    -15.59121  eV     1   --> A              
     e(  2 -  2) =    -15.58504  eV     1   --> A              
     e(  3 -  3) =    -15.53562  eV     1   --> A              
     e(  4 -  4) =    -15.52904  eV     1   --> A              
     e(  5 -  5) =     -3.14103  eV     1   --> A              
     e(  6 -  6) =     -3.12953  eV     1   --> A              
     e(  7 -  7) =     -2.58580  eV     1   --> A              
     e(  8 -  8) =     -2.56226  eV     1   --> A              
     e(  9 -  9) =     -1.38260  eV     1   --> A              
     e( 10 - 10) =     -1.36833  eV     1   --> A              
     e( 11 - 11) =     -1.36117  eV     1   --> A              
     e( 12 - 12) =     -1.27637  eV     1   --> A              
     e( 13 - 13) =     -1.27226  eV     1   --> A              
     e( 14 - 14) =     -1.26843  eV     1   --> A              
     e( 15 - 15) =     -0.29295  eV     1   --> A              
     e( 16 - 16) =     -0.13374  eV     1   --> A              
     e( 17 - 17) =      2.61067  eV     1   --> A              
     e( 18 - 18) =      2.69880  eV     1   --> A              
     e( 19 - 19) =      6.60955  eV     1   --> A              
     e( 20 - 20) =      7.10621  eV     1   --> A              
     e( 21 - 21) =      7.16438  eV     1   --> A              
     e( 22 - 22) =      7.56445  eV     1   --> A              
     e( 23 - 23) =      7.81963  eV     1   --> A              
     e( 24 - 24) =      8.55185  eV     1   --> A              
     e( 25 - 25) =      9.26805  eV     1   --> A              
     e( 26 - 26) =     10.21419  eV     1   --> A              
     e( 27 - 27) =     10.73544  eV     1   --> A              
     e( 28 - 28) =     10.74989  eV     1   --> A              
     e( 29 - 29) =     10.76826  eV     1   --> A              
     e( 30 - 30) =     11.69928  eV     1   --> A              
     e( 31 - 31) =     11.88377  eV     1   --> A              
     e( 32 - 32) =     12.65719  eV     1   --> A              
     e( 33 - 33) =     13.03361  eV     1   --> A              
     e( 34 - 34) =     13.86311  eV     1   --> A              
     e( 35 - 35) =     14.69535  eV     1   --> A              
     e( 36 - 36) =     14.77976  eV     1   --> A              
     e( 37 - 37) =     15.23476  eV     1   --> A              
     e( 38 - 38) =     15.76357  eV     1   --> A              
     e( 39 - 39) =     16.04605  eV     1   --> A              
     e( 40 - 40) =     16.96635  eV     1   --> A              
     e( 41 - 41) =     17.07089  eV     1   --> A              
     e( 42 - 42) =     17.38139  eV     1   --> A              
     e( 43 - 43) =     18.28607  eV     1   --> A              
     e( 44 - 44) =     18.41445  eV     1   --> A              
     e( 45 - 45) =     19.11302  eV     1   --> A              
     e( 46 - 46) =     19.14850  eV     1   --> A              
     e( 47 - 47) =     19.41570  eV     1   --> A              
     e( 48 - 48) =     19.67758  eV     1   --> A              
     e( 49 - 49) =     20.31857  eV     1   --> A              
     e( 50 - 50) =     20.56848  eV     1   --> A              
     e( 51 - 51) =     21.11152  eV     1   --> A              
     e( 52 - 52) =     21.56837  eV     1   --> A              
     e( 53 - 53) =     21.77573  eV     1   --> A              
     e( 54 - 54) =     22.37700  eV     1   --> A              
     e( 55 - 55) =     22.84522  eV     1   --> A              
     e( 56 - 56) =     23.77436  eV     1   --> A              
     e( 57 - 57) =     24.07919  eV     1   --> A              
     e( 58 - 58) =     24.33660  eV     1   --> A              
     e( 59 - 59) =     24.36624  eV     1   --> A              
     e( 60 - 60) =     24.67587  eV     1   --> A              
     e( 61 - 61) =     24.90724  eV     1   --> A              
     e( 62 - 62) =     25.00372  eV     1   --> A              
     e( 63 - 63) =     25.40378  eV     1   --> A              
     e( 64 - 64) =     25.46273  eV     1   --> A              
     e( 65 - 65) =     25.61986  eV     1   --> A              
     e( 66 - 66) =     26.09196  eV     1   --> A              
     e( 67 - 67) =     26.54446  eV     1   --> A              
     e( 68 - 68) =     26.66138  eV     1   --> A              
     e( 69 - 69) =     26.84130  eV     1   --> A              
     e( 70 - 70) =     27.87952  eV     1   --> A              

 **************************************************************************

 **************************************************************************

                    xk=(   0.30802,   0.17736,   0.00000  )

     Band symmetry, C_1 (1)     point group:

     e(  1 -  1) =    -15.55749  eV     1   --> A              
     e(  2 -  2) =    -15.55147  eV     1   --> A              
     e(  3 -  3) =    -15.50393  eV     1   --> A              
     e(  4 -  4) =    -15.49748  eV     1   --> A              
     e(  5 -  5) =     -3.21903  eV     1   --> A              
     e(  6 -  6) =     -3.20627  eV     1   --> A              
     e(  7 -  7) =     -2.69947  eV     1   --> A              
     e(  8 -  8) =     -2.67535  eV     1   --> A              
     e(  9 -  9) =     -1.45402  eV     1   --> A              
     e( 10 - 10) =     -1.44595  eV     1   --> A              
     e( 11 - 11) =     -1.35295  eV     1   --> A              
     e( 12 - 12) =     -1.34440  eV     1   --> A              
     e( 13 - 13) =     -1.30015  eV     1   --> A              
     e( 14 - 14) =     -1.19246  eV     1   --> A              
     e( 15 - 15) =     -0.24342  eV     1   --> A              
     e( 16 - 16) =     -0.09118  eV     1   --> A              
[...]
     e( 61 - 61) =     23.91400  eV     1   --> A''            
     e( 62 - 62) =     24.07752  eV     1   --> A'             
     e( 63 - 63) =     24.08941  eV     1   --> A''            
     e( 64 - 64) =     24.31242  eV     1   --> A'             
     e( 65 - 65) =     24.82196  eV     1   --> A''            
     e( 66 - 66) =     26.18321  eV     1   --> A'             
     e( 67 - 67) =     26.35820  eV     1   --> A'             
     e( 68 - 68) =     26.36962  eV     1   --> A'             
     e( 69 - 69) =     27.09252  eV     1   --> A''            
     e( 70 - 70) =     27.23604  eV     1   --> A'             

 **************************************************************************

 **************************************************************************

                    xk=(   0.05775,   0.00000,   0.00000  )

     Band symmetry, C_s (m)     point group:

     e(  1 -  1) =    -15.91350  eV     1   --> A'             
     e(  2 -  2) =    -15.90592  eV     1   --> A'             
     e(  3 -  3) =    -15.83918  eV     1   --> A'             
     e(  4 -  4) =    -15.83125  eV     1   --> A'             
     e(  5 -  5) =     -2.83433  eV     1   --> A'             
     e(  6 -  6) =     -2.77933  eV     1   --> A'             
     e(  7 -  7) =     -0.89521  eV     1   --> A'             
     e(  8 -  8) =     -0.87792  eV     1   --> A'             
     e(  9 -  9) =     -0.86285  eV     1   --> A'             
     e( 10 - 10) =     -0.85688  eV     1   --> A'             
     e( 11 - 11) =     -0.81095  eV     1   --> A''            
     e( 12 - 12) =     -0.80714  eV     1   --> A''            
     e( 13 - 13) =     -0.76732  eV     1   --> A''            
     e( 14 - 14) =     -0.76278  eV     1   --> A''            
     e( 15 - 15) =     -0.75714  eV     1   --> A'             
     e( 16 - 16) =     -0.54715  eV     1   --> A'             
     e( 17 - 17) =      1.52968  eV     1   --> A'             
     e( 18 - 18) =      1.85580  eV     1   --> A'             
     e( 19 - 19) =      4.08750  eV     1   --> A'             
     e( 20 - 20) =      4.55876  eV     1   --> A'             
     e( 21 - 21) =      6.32871  eV     1   --> A'             
     e( 22 - 22) =      6.97397  eV     1   --> A'             
     e( 23 - 23) =      9.02858  eV     1   --> A'             
     e( 24 - 24) =     10.03430  eV     1   --> A'             
     e( 25 - 25) =     11.43141  eV     1   --> A'             
     e( 26 - 26) =     11.44510  eV     1   --> A'             
     e( 27 - 27) =     11.50907  eV     1   --> A'             
     e( 28 - 28) =     11.74032  eV     1   --> A''            
     e( 29 - 29) =     11.75727  eV     1   --> A''            
     e( 30 - 30) =     12.92979  eV     1   --> A'             
     e( 31 - 31) =     13.19772  eV     1   --> A'             
     e( 32 - 32) =     13.33208  eV     1   --> A''            
     e( 33 - 33) =     13.37536  eV     1   --> A''            
     e( 34 - 34) =     13.42911  eV     1   --> A'             
     e( 35 - 35) =     14.45998  eV     1   --> A'             
     e( 36 - 36) =     15.41988  eV     1   --> A'             
     e( 37 - 37) =     15.90639  eV     1   --> A'             
     e( 38 - 38) =     15.95479  eV     1   --> A'             
     e( 39 - 39) =     16.13752  eV     1   --> A''            
     e( 40 - 40) =     16.21105  eV     1   --> A''            
     e( 41 - 41) =     17.14401  eV     1   --> A'             
     e( 42 - 42) =     18.49723  eV     1   --> A'             
     e( 43 - 43) =     18.83071  eV     1   --> A'             
     e( 44 - 44) =     19.11519  eV     1   --> A'             
     e( 45 - 45) =     19.12751  eV     1   --> A'             
     e( 46 - 46) =     19.31221  eV     1   --> A''            
     e( 47 - 47) =     19.46782  eV     1   --> A'             
     e( 48 - 48) =     19.48853  eV     1   --> A''            
     e( 49 - 49) =     19.87566  eV     1   --> A'             
     e( 50 - 50) =     20.61021  eV     1   --> A''            
     e( 51 - 51) =     20.63108  eV     1   --> A'             
     e( 52 - 52) =     20.93299  eV     1   --> A''            
     e( 53 - 53) =     20.95939  eV     1   --> A'             
     e( 54 - 54) =     20.96534  eV     1   --> A'             
     e( 55 - 55) =     22.68122  eV     1   --> A'             
     e( 56 - 56) =     22.81464  eV     1   --> A'             
     e( 57 - 57) =     23.05844  eV     1   --> A'             
     e( 58 - 58) =     23.12816  eV     1   --> A''            
     e( 59 - 59) =     23.46150  eV     1   --> A'             
     e( 60 - 60) =     23.61104  eV     1   --> A'             
     e( 61 - 61) =     23.81034  eV     1   --> A''            
     e( 62 - 62) =     24.22690  eV     1   --> A''            
     e( 63 - 63) =     24.32673  eV     1   --> A'             
     e( 64 - 64) =     24.36301  eV     1   --> A'             
     e( 65 - 65) =     24.78864  eV     1   --> A''            
     e( 66 - 66) =     25.98622  eV     1   --> A'             
     e( 67 - 67) =     26.45690  eV     1   --> A'             
     e( 68 - 68) =     26.46914  eV     1   --> A'             
     e( 69 - 69) =     26.90497  eV     1   --> A''            
     e( 70 - 70) =     27.15714  eV     1   --> A'             

 **************************************************************************

 **************************************************************************

                    xk=(   0.03850,   0.00000,   0.00000  )

     Band symmetry, C_s (m)     point group:

     e(  1 -  1) =    -15.92044  eV     1   --> A'             
     e(  2 -  2) =    -15.91284  eV     1   --> A'             
     e(  3 -  3) =    -15.84573  eV     1   --> A'             
     e(  4 -  4) =    -15.83777  eV     1   --> A'             
     e(  5 -  5) =     -2.84307  eV     1   --> A'             
     e(  6 -  6) =     -2.78648  eV     1   --> A'             
     e(  7 -  7) =     -0.83960  eV     1   --> A'             
     e(  8 -  8) =     -0.82949  eV     1   --> A'             
     e(  9 -  9) =     -0.80627  eV     1   --> A'             
     e( 10 - 10) =     -0.80275  eV     1   --> A''            
     e( 11 - 11) =     -0.79897  eV     1   --> A''            
     e( 12 - 12) =     -0.79711  eV     1   --> A'             
     e( 13 - 13) =     -0.76485  eV     1   --> A'             
     e( 14 - 14) =     -0.75957  eV     1   --> A''            
     e( 15 - 15) =     -0.75509  eV     1   --> A''            
     e( 16 - 16) =     -0.55933  eV     1   --> A'             
     e( 17 - 17) =      1.48286  eV     1   --> A'             
     e( 18 - 18) =      1.81953  eV     1   --> A'             
     e( 19 - 19) =      4.01771  eV     1   --> A'             
     e( 20 - 20) =      4.48908  eV     1   --> A'             
     e( 21 - 21) =      6.30736  eV     1   --> A'             
     e( 22 - 22) =      6.94015  eV     1   --> A'             
     e( 23 - 23) =      9.02041  eV     1   --> A'             
     e( 24 - 24) =     10.01166  eV     1   --> A'             
     e( 25 - 25) =     11.53225  eV     1   --> A'             
     e( 26 - 26) =     11.60307  eV     1   --> A'             
     e( 27 - 27) =     11.61405  eV     1   --> A'             
     e( 28 - 28) =     11.73551  eV     1   --> A''            
     e( 29 - 29) =     11.75284  eV     1   --> A''            
     e( 30 - 30) =     13.05524  eV     1   --> A'             
     e( 31 - 31) =     13.27173  eV     1   --> A'             
     e( 32 - 32) =     13.29785  eV     1   --> A''            
     e( 33 - 33) =     13.34116  eV     1   --> A''            
     e( 34 - 34) =     13.38480  eV     1   --> A'             
     e( 35 - 35) =     14.39515  eV     1   --> A'             
     e( 36 - 36) =     15.28447  eV     1   --> A'             
     e( 37 - 37) =     16.06065  eV     1   --> A'             
     e( 38 - 38) =     16.09729  eV     1   --> A'             
     e( 39 - 39) =     16.16768  eV     1   --> A''            
     e( 40 - 40) =     16.23509  eV     1   --> A''            
     e( 41 - 41) =     17.00414  eV     1   --> A'             
     e( 42 - 42) =     18.47788  eV     1   --> A'             
     e( 43 - 43) =     18.96244  eV     1   --> A'             
     e( 44 - 44) =     19.02704  eV     1   --> A'             
     e( 45 - 45) =     19.21347  eV     1   --> A''            
     e( 46 - 46) =     19.22525  eV     1   --> A'             
     e( 47 - 47) =     19.36332  eV     1   --> A'             
     e( 48 - 48) =     19.39131  eV     1   --> A''            
     e( 49 - 49) =     19.63719  eV     1   --> A'             
     e( 50 - 50) =     20.71058  eV     1   --> A''            
     e( 51 - 51) =     20.72927  eV     1   --> A'             
     e( 52 - 52) =     20.76017  eV     1   --> A'             
     e( 53 - 53) =     21.00098  eV     1   --> A''            
     e( 54 - 54) =     21.02451  eV     1   --> A'             
     e( 55 - 55) =     22.66707  eV     1   --> A'             
     e( 56 - 56) =     22.90453  eV     1   --> A'             
     e( 57 - 57) =     23.04491  eV     1   --> A''            
     e( 58 - 58) =     23.07654  eV     1   --> A'             
     e( 59 - 59) =     23.34754  eV     1   --> A'             
     e( 60 - 60) =     23.64994  eV     1   --> A'             
     e( 61 - 61) =     23.72977  eV     1   --> A''            
     e( 62 - 62) =     24.34048  eV     1   --> A''            
     e( 63 - 63) =     24.41549  eV     1   --> A'             
     e( 64 - 64) =     24.55145  eV     1   --> A'             
     e( 65 - 65) =     24.77090  eV     1   --> A''            
     e( 66 - 66) =     25.79266  eV     1   --> A'             
     e( 67 - 67) =     26.53231  eV     1   --> A'             
     e( 68 - 68) =     26.55902  eV     1   --> A'             
     e( 69 - 69) =     26.75503  eV     1   --> A''            
     e( 70 - 70) =     27.05631  eV     1   --> A'             

 **************************************************************************

 **************************************************************************

                    xk=(   0.01925,   0.00000,   0.00000  )

     Band symmetry, C_s (m)     point group:

     e(  1 -  1) =    -15.92463  eV     1   --> A'             
     e(  2 -  2) =    -15.91701  eV     1   --> A'             
     e(  3 -  3) =    -15.84969  eV     1   --> A'             
     e(  4 -  4) =    -15.84170  eV     1   --> A'             
     e(  5 -  5) =     -2.84853  eV     1   --> A'             
     e(  6 -  6) =     -2.79102  eV     1   --> A'             
     e(  7 -  7) =     -0.80447  eV     1   --> A'             
     e(  8 -  8) =     -0.79910  eV     1   --> A'             
     e(  9 -  9) =     -0.79777  eV     1   --> A''            
     e( 10 - 10) =     -0.79403  eV     1   --> A''            
     e( 11 - 11) =     -0.78228  eV     1   --> A'             
     e( 12 - 12) =     -0.75979  eV     1   --> A'             
     e( 13 - 13) =     -0.75760  eV     1   --> A'             
     e( 14 - 14) =     -0.75494  eV     1   --> A''            
     e( 15 - 15) =     -0.75038  eV     1   --> A''            
     e( 16 - 16) =     -0.56799  eV     1   --> A'             
     e( 17 - 17) =      1.45319  eV     1   --> A'             
     e( 18 - 18) =      1.79667  eV     1   --> A'             
     e( 19 - 19) =      3.97479  eV     1   --> A'             
     e( 20 - 20) =      4.44632  eV     1   --> A'             
     e( 21 - 21) =      6.29438  eV     1   --> A'             
     e( 22 - 22) =      6.91961  eV     1   --> A'             
     e( 23 - 23) =      9.01543  eV     1   --> A'             
     e( 24 - 24) =      9.99750  eV     1   --> A'             
     e( 25 - 25) =     11.54593  eV     1   --> A'             
     e( 26 - 26) =     11.71317  eV     1   --> A'             
     e( 27 - 27) =     11.72850  eV     1   --> A'             
     e( 28 - 28) =     11.73233  eV     1   --> A''            
     e( 29 - 29) =     11.74992  eV     1   --> A''            
     e( 30 - 30) =     13.15826  eV     1   --> A'             
     e( 31 - 31) =     13.27719  eV     1   --> A''            
     e( 32 - 32) =     13.31862  eV     1   --> A'             
     e( 33 - 33) =     13.32052  eV     1   --> A''            
     e( 34 - 34) =     13.33285  eV     1   --> A'             
     e( 35 - 35) =     14.33976  eV     1   --> A'             
     e( 36 - 36) =     15.18357  eV     1   --> A'             
     e( 37 - 37) =     16.17479  eV     1   --> A'             
     e( 38 - 38) =     16.18789  eV     1   --> A''            
     e( 39 - 39) =     16.22279  eV     1   --> A'             
     e( 40 - 40) =     16.25140  eV     1   --> A''            
     e( 41 - 41) =     16.88603  eV     1   --> A'             
     e( 42 - 42) =     18.46602  eV     1   --> A'             
     e( 43 - 43) =     18.96606  eV     1   --> A'             
     e( 44 - 44) =     19.08260  eV     1   --> A'             
     e( 45 - 45) =     19.15212  eV     1   --> A''            
     e( 46 - 46) =     19.29451  eV     1   --> A'             
     e( 47 - 47) =     19.30374  eV     1   --> A'             
     e( 48 - 48) =     19.33121  eV     1   --> A''            
     e( 49 - 49) =     19.44693  eV     1   --> A'             
     e( 50 - 50) =     20.62175  eV     1   --> A'             
     e( 51 - 51) =     20.77640  eV     1   --> A''            
     e( 52 - 52) =     20.79582  eV     1   --> A'             
     e( 53 - 53) =     21.04447  eV     1   --> A''            
     e( 54 - 54) =     21.06548  eV     1   --> A'             
     e( 55 - 55) =     22.60161  eV     1   --> A'             
     e( 56 - 56) =     22.96819  eV     1   --> A'             
     e( 57 - 57) =     22.98724  eV     1   --> A''            
     e( 58 - 58) =     23.14031  eV     1   --> A'             
     e( 59 - 59) =     23.27702  eV     1   --> A'             
     e( 60 - 60) =     23.67522  eV     1   --> A'             
     e( 61 - 61) =     23.67842  eV     1   --> A''            
     e( 62 - 62) =     24.41691  eV     1   --> A''            
     e( 63 - 63) =     24.45547  eV     1   --> A'             
     e( 64 - 64) =     24.72148  eV     1   --> A'             
     e( 65 - 65) =     24.76276  eV     1   --> A''            
     e( 66 - 66) =     25.64087  eV     1   --> A'             
     e( 67 - 67) =     26.57983  eV     1   --> A'             
     e( 68 - 68) =     26.62253  eV     1   --> A'             
     e( 69 - 69) =     26.65654  eV     1   --> A''            
     e( 70 - 70) =     26.96994  eV     1   --> A'             

 **************************************************************************

 **************************************************************************

                    xk=(   0.00000,   0.00000,   0.00000  )

     Band symmetry, C_s (m)     point group:

     e(  1 -  1) =    -15.92603  eV     1   --> A'             
     e(  2 -  2) =    -15.91840  eV     1   --> A'             
     e(  3 -  3) =    -15.85101  eV     1   --> A'             
     e(  4 -  4) =    -15.84301  eV     1   --> A'             
     e(  5 -  5) =     -2.85039  eV     1   --> A'             
     e(  6 -  6) =     -2.79257  eV     1   --> A'             
     e(  7 -  7) =     -0.79607  eV     1   --> A''            
     e(  8 -  9) =     -0.79241  eV     2   --> A'             
     e(  8 -  9) =     -0.79241  eV     2   --> A''            
     e( 10 - 10) =     -0.78868  eV     1   --> A'             
     e( 11 - 11) =     -0.78093  eV     1   --> A'             
     e( 12 - 12) =     -0.75336  eV     1   --> A''            
     e( 13 - 13) =     -0.74984  eV     1   --> A'             
     e( 14 - 14) =     -0.74883  eV     1   --> A''            
     e( 15 - 15) =     -0.74533  eV     1   --> A'             
     e( 16 - 16) =     -0.57129  eV     1   --> A'             
     e( 17 - 17) =      1.44302  eV     1   --> A'             
     e( 18 - 18) =      1.78886  eV     1   --> A'             
     e( 19 - 19) =      3.96030  eV     1   --> A'             
     e( 20 - 20) =      4.43189  eV     1   --> A'             
     e( 21 - 21) =      6.29003  eV     1   --> A'             
     e( 22 - 22) =      6.91272  eV     1   --> A'             
     e( 23 - 23) =      9.01377  eV     1   --> A'             
     e( 24 - 24) =      9.99269  eV     1   --> A'             
     e( 25 - 25) =     11.55046  eV     1   --> A'             
     e( 26 - 26) =     11.73123  eV     1   --> A''            
     e( 27 - 27) =     11.74890  eV     1   --> A''            
     e( 28 - 28) =     11.75148  eV     1   --> A'             
     e( 29 - 29) =     11.76909  eV     1   --> A'             
     e( 30 - 30) =     13.21692  eV     1   --> A'             
     e( 31 - 31) =     13.27028  eV     1   --> A''            
     e( 32 - 32) =     13.29155  eV     1   --> A'             
     e( 33 - 33) =     13.31362  eV     1   --> A''            
     e( 34 - 34) =     13.33477  eV     1   --> A'             
     e( 35 - 35) =     14.31819  eV     1   --> A'             
     e( 36 - 36) =     15.14720  eV     1   --> A'             
     e( 37 - 37) =     16.19501  eV     1   --> A''            
     e( 38 - 38) =     16.21607  eV     1   --> A'             
     e( 39 - 39) =     16.25717  eV     1   --> A''            
     e( 40 - 40) =     16.27841  eV     1   --> A'             
     e( 41 - 41) =     16.83379  eV     1   --> A'             
     e( 42 - 42) =     18.46202  eV     1   --> A'             
     e( 43 - 43) =     18.94451  eV     1   --> A'             
     e( 44 - 44) =     19.13130  eV     1   --> A''            
     e( 45 - 45) =     19.15539  eV     1   --> A'             
     e( 46 - 46) =     19.27063  eV     1   --> A'             
     e( 47 - 47) =     19.31086  eV     1   --> A''            
     e( 48 - 48) =     19.33483  eV     1   --> A'             
     e( 49 - 49) =     19.34940  eV     1   --> A'             
     e( 50 - 50) =     20.57088  eV     1   --> A'             
     e( 51 - 51) =     20.79946  eV     1   --> A''            
     e( 52 - 52) =     20.81910  eV     1   --> A'             
     e( 53 - 53) =     21.05947  eV     1   --> A''            
     e( 54 - 54) =     21.07995  eV     1   --> A'             
     e( 55 - 55) =     22.57396  eV     1   --> A'             
     e( 56 - 56) =     22.96657  eV     1   --> A''            
     e( 57 - 57) =     22.99154  eV     1   --> A'             
     e( 58 - 58) =     23.16654  eV     1   --> A'             
     e( 59 - 59) =     23.25319  eV     1   --> A'             
     e( 60 - 60) =     23.66074  eV     1   --> A''            
     e( 61 - 61) =     23.68401  eV     1   --> A'             
     e( 62 - 62) =     24.44410  eV     1   --> A''            
     e( 63 - 63) =     24.47047  eV     1   --> A'             
     e( 64 - 64) =     24.76048  eV     1   --> A''            
     e( 65 - 65) =     24.78942  eV     1   --> A'             
     e( 66 - 66) =     25.57937  eV     1   --> A'             
     e( 67 - 67) =     26.59609  eV     1   --> A'             
     e( 68 - 68) =     26.62197  eV     1   --> A''            
     e( 69 - 69) =     26.64551  eV     1   --> A'             
     e( 70 - 70) =     26.93584  eV     1   --> A'             

 **************************************************************************
 
     BANDS        :      6.79s CPU     10.90s WALL

 
   This run was terminated on:  14: 9:18  17Jun2023            

=------------------------------------------------------------------------------=
   JOB DONE.
=------------------------------------------------------------------------------=
