
     Program PWSCF v.7.1 starts on 15Feb2023 at  8:21: 5 

     This program is part of the open-source Quantum ESPRESSO suite
     for quantum simulation of materials; please cite
         "P. Giannozzi et al., J. Phys.:Condens. Matter 21 395502 (2009);
         "P. Giannozzi et al., J. Phys.:Condens. Matter 29 465901 (2017);
         "P. Giannozzi et al., J. Chem. Phys. 152 154105 (2020);
          URL http://www.quantum-espresso.org", 
     in publications or presentations arising from this work. More details at
     http://www.quantum-espresso.org/quote

     Parallel version (MPI), running on    12 processors

     MPI processes distributed on     1 nodes
     84058 MiB available memory on the printing compute node when the environment starts

     Waiting for input...
     Reading input from standard input

     Current dimensions of program PWSCF are:
     Max number of different atomic species (ntypx) = 10
     Max number of k-points (npk) =  40000
     Max angular momentum in pseudopotentials (lmaxx) =  4
     Message from routine volume:
     axis vectors are left-handed

     Atomic positions and unit cell read from directory:
     ./work/Al2SO.save/
     Atomic positions from file used, from input discarded

     Message from routine volume:
     axis vectors are left-handed
     file Al.pbe-n-kjpaw_psl.1.0.0.UPF: wavefunction(s)  3S 3P renormalized
     file O.pbe-n-kjpaw_psl.1.0.0.UPF: wavefunction(s)  2S 2P renormalized
     file S.pbe-n-kjpaw_psl.1.0.0.UPF: wavefunction(s)  3S 3P renormalized
     Message from routine setup:
     using ibrav=0 with symmetry is DISCOURAGED, use correct ibrav instead

     R & G space division:  proc/nbgrp/npool/nimage =      12
     Subspace diagonalization in iterative solution of the eigenvalue problem:
     a serial algorithm will be used


     Parallelization info
     --------------------
     sticks:   dense  smooth     PW     G-vecs:    dense   smooth      PW
     Min          51      51     15                 8040     8040    1289
     Max          53      53     16                 8053     8053    1312
     Sum         625     625    187                96569    96569   15597

     Using Slab Decomposition



     bravais-lattice index     =            0
     lattice parameter (alat)  =       6.1344  a.u.
     unit-cell volume          =    1540.6476 (a.u.)^3
     number of atoms/cell      =            4
     number of atomic types    =            3
     number of electrons       =        18.00
     number of Kohn-Sham states=           36
     kinetic-energy cutoff     =      60.0000  Ry
     charge density cutoff     =     240.0000  Ry
     Exchange-correlation= SLA  PW   PBX  PBC
                           (   1   4   3   4   0   0   0)

     celldm(1)=   6.134387  celldm(2)=   0.000000  celldm(3)=   0.000000
     celldm(4)=   0.000000  celldm(5)=   0.000000  celldm(6)=   0.000000

     crystal axes: (cart. coord. in units of alat)
               a(1) = (   0.865734   0.500504   0.000000 )  
               a(2) = (   0.865734  -0.500504   0.000000 )  
               a(3) = (   0.000000   0.000000   7.701366 )  

     reciprocal axes: (cart. coord. in units 2 pi/alat)
               b(1) = (  0.577544  0.998993 -0.000000 )  
               b(2) = (  0.577544 -0.998993 -0.000000 )  
               b(3) = ( -0.000000 -0.000000  0.129847 )  


     PseudoPot. # 1 for Al read from file:
     /home/mainadmin/research/danu/pseudo/Al.pbe-n-kjpaw_psl.1.0.0.UPF
     MD5 check sum: 502b6b27b9c6270cab5dd1084b96fa6d
     Pseudo is Projector augmented-wave + core cor, Zval =  3.0
     Generated using &quot;atomic&quot; code by A. Dal Corso  v.6.3
     Shape of augmentation charge: PSQ
     Using radial grid of 1135 points,  6 beta functions with: 
                l(1) =   0
                l(2) =   0
                l(3) =   1
                l(4) =   1
                l(5) =   2
                l(6) =   2
     Q(r) pseudized with 0 coefficients 


     PseudoPot. # 2 for O  read from file:
     /home/mainadmin/research/danu/pseudo/O.pbe-n-kjpaw_psl.1.0.0.UPF
     MD5 check sum: e99d9cef9b487d1ca56f5b95ecd0fd7a
     Pseudo is Projector augmented-wave + core cor, Zval =  6.0
     Generated using &quot;atomic&quot; code by A. Dal Corso  v.6.3
     Shape of augmentation charge: PSQ
     Using radial grid of 1095 points,  4 beta functions with: 
                l(1) =   0
                l(2) =   0
                l(3) =   1
                l(4) =   1
     Q(r) pseudized with 0 coefficients 


     PseudoPot. # 3 for S  read from file:
     /home/mainadmin/research/danu/pseudo/S.pbe-n-kjpaw_psl.1.0.0.UPF
     MD5 check sum: fb45dfebcf3e72a4e1bd4a866ec2e262
     Pseudo is Projector augmented-wave + core cor, Zval =  6.0
     Generated using &quot;atomic&quot; code by A. Dal Corso  v.6.3
     Shape of augmentation charge: PSQ
     Using radial grid of 1151 points,  6 beta functions with: 
                l(1) =   0
                l(2) =   0
                l(3) =   1
                l(4) =   1
                l(5) =   2
                l(6) =   2
     Q(r) pseudized with 0 coefficients 


     atomic species   valence    mass     pseudopotential
        Al             3.00    26.98100     Al( 1.00)
        O              6.00    15.99900     O ( 1.00)
        S              6.00    32.06500     S ( 1.00)

      2 Sym. Ops. (no inversion) found



   Cartesian axes

     site n.     atom                  positions (alat units)
         1           O   tau(   1) = (   1.1543382   0.0000000   3.2384027  )
         2           Al  tau(   2) = (   0.5778012   0.0000000   3.4059957  )
         3           Al  tau(   3) = (   0.5767468   0.0000000   4.2109002  )
         4           S   tau(   4) = (   1.1540505   0.0000000   4.5877182  )

     number of k points=    91
                       cart. coord. in units 2pi/alat
        k(    1) = (   0.0000000   0.0000000   0.0000000), wk =   0.0219780
        k(    2) = (   0.0192515  -0.0110848   0.0000000), wk =   0.0219780
        k(    3) = (   0.0385030  -0.0221697   0.0000000), wk =   0.0219780
        k(    4) = (   0.0577544  -0.0332545   0.0000000), wk =   0.0219780
        k(    5) = (   0.0770059  -0.0443393   0.0000000), wk =   0.0219780
        k(    6) = (   0.0962574  -0.0554241   0.0000000), wk =   0.0219780
        k(    7) = (   0.1155089  -0.0665090   0.0000000), wk =   0.0219780
        k(    8) = (   0.1347604  -0.0775938   0.0000000), wk =   0.0219780
        k(    9) = (   0.1540119  -0.0886786   0.0000000), wk =   0.0219780
        k(   10) = (   0.1732633  -0.0997634   0.0000000), wk =   0.0219780
        k(   11) = (   0.1925148  -0.1108483   0.0000000), wk =   0.0219780
        k(   12) = (   0.2117663  -0.1219331   0.0000000), wk =   0.0219780
        k(   13) = (   0.2310178  -0.1330179   0.0000000), wk =   0.0219780
        k(   14) = (   0.2502693  -0.1441027   0.0000000), wk =   0.0219780
        k(   15) = (   0.2695208  -0.1551876   0.0000000), wk =   0.0219780
        k(   16) = (   0.2887722  -0.1662724   0.0000000), wk =   0.0219780
        k(   17) = (   0.3080237  -0.1773572   0.0000000), wk =   0.0219780
        k(   18) = (   0.3272752  -0.1884420   0.0000000), wk =   0.0219780
        k(   19) = (   0.3465267  -0.1995269   0.0000000), wk =   0.0219780
        k(   20) = (   0.3657782  -0.2106117   0.0000000), wk =   0.0219780
        k(   21) = (   0.3850296  -0.2216965   0.0000000), wk =   0.0219780
        k(   22) = (   0.4042811  -0.2327813   0.0000000), wk =   0.0219780
        k(   23) = (   0.4235326  -0.2438662   0.0000000), wk =   0.0219780
        k(   24) = (   0.4427841  -0.2549510   0.0000000), wk =   0.0219780
        k(   25) = (   0.4620356  -0.2660358   0.0000000), wk =   0.0219780
        k(   26) = (   0.4812871  -0.2771206   0.0000000), wk =   0.0219780
        k(   27) = (   0.5005385  -0.2882055   0.0000000), wk =   0.0219780
        k(   28) = (   0.5197900  -0.2992903   0.0000000), wk =   0.0219780
        k(   29) = (   0.5390415  -0.3103751   0.0000000), wk =   0.0219780
        k(   30) = (   0.5582930  -0.3214599   0.0000000), wk =   0.0219780
        k(   31) = (   0.5775445  -0.3325448   0.0000000), wk =   0.0219780
        k(   32) = (   0.5775445  -0.3214599   0.0000000), wk =   0.0219780
        k(   33) = (   0.5775445  -0.3103751   0.0000000), wk =   0.0219780
        k(   34) = (   0.5775445  -0.2992903   0.0000000), wk =   0.0219780
        k(   35) = (   0.5775445  -0.2882055   0.0000000), wk =   0.0219780
        k(   36) = (   0.5775445  -0.2771206   0.0000000), wk =   0.0219780
        k(   37) = (   0.5775445  -0.2660358   0.0000000), wk =   0.0219780
        k(   38) = (   0.5775445  -0.2549510   0.0000000), wk =   0.0219780
        k(   39) = (   0.5775445  -0.2438662   0.0000000), wk =   0.0219780
        k(   40) = (   0.5775445  -0.2327813   0.0000000), wk =   0.0219780
        k(   41) = (   0.5775445  -0.2216965   0.0000000), wk =   0.0219780
        k(   42) = (   0.5775445  -0.2106117   0.0000000), wk =   0.0219780
        k(   43) = (   0.5775445  -0.1995269   0.0000000), wk =   0.0219780
        k(   44) = (   0.5775445  -0.1884420   0.0000000), wk =   0.0219780
        k(   45) = (   0.5775445  -0.1773572   0.0000000), wk =   0.0219780
        k(   46) = (   0.5775445  -0.1662724   0.0000000), wk =   0.0219780
        k(   47) = (   0.5775445  -0.1551876   0.0000000), wk =   0.0219780
        k(   48) = (   0.5775445  -0.1441027   0.0000000), wk =   0.0219780
        k(   49) = (   0.5775445  -0.1330179   0.0000000), wk =   0.0219780
        k(   50) = (   0.5775445  -0.1219331   0.0000000), wk =   0.0219780
        k(   51) = (   0.5775445  -0.1108483   0.0000000), wk =   0.0219780
        k(   52) = (   0.5775445  -0.0997634   0.0000000), wk =   0.0219780
        k(   53) = (   0.5775445  -0.0886786   0.0000000), wk =   0.0219780
        k(   54) = (   0.5775445  -0.0775938   0.0000000), wk =   0.0219780
        k(   55) = (   0.5775445  -0.0665090   0.0000000), wk =   0.0219780
        k(   56) = (   0.5775445  -0.0554241   0.0000000), wk =   0.0219780
        k(   57) = (   0.5775445  -0.0443393   0.0000000), wk =   0.0219780
        k(   58) = (   0.5775445  -0.0332545   0.0000000), wk =   0.0219780
        k(   59) = (   0.5775445  -0.0221697   0.0000000), wk =   0.0219780
        k(   60) = (   0.5775445  -0.0110848   0.0000000), wk =   0.0219780
        k(   61) = (   0.5775445   0.0000000   0.0000000), wk =   0.0219780
        k(   62) = (   0.5582930   0.0000000   0.0000000), wk =   0.0219780
        k(   63) = (   0.5390415   0.0000000   0.0000000), wk =   0.0219780
        k(   64) = (   0.5197900   0.0000000   0.0000000), wk =   0.0219780
        k(   65) = (   0.5005385   0.0000000   0.0000000), wk =   0.0219780
        k(   66) = (   0.4812871   0.0000000   0.0000000), wk =   0.0219780
        k(   67) = (   0.4620356   0.0000000   0.0000000), wk =   0.0219780
        k(   68) = (   0.4427841   0.0000000   0.0000000), wk =   0.0219780
        k(   69) = (   0.4235326   0.0000000   0.0000000), wk =   0.0219780
        k(   70) = (   0.4042811   0.0000000   0.0000000), wk =   0.0219780
        k(   71) = (   0.3850296   0.0000000   0.0000000), wk =   0.0219780
        k(   72) = (   0.3657782   0.0000000   0.0000000), wk =   0.0219780
        k(   73) = (   0.3465267   0.0000000   0.0000000), wk =   0.0219780
        k(   74) = (   0.3272752   0.0000000   0.0000000), wk =   0.0219780
        k(   75) = (   0.3080237   0.0000000   0.0000000), wk =   0.0219780
        k(   76) = (   0.2887722   0.0000000   0.0000000), wk =   0.0219780
        k(   77) = (   0.2695208   0.0000000   0.0000000), wk =   0.0219780
        k(   78) = (   0.2502693   0.0000000   0.0000000), wk =   0.0219780
        k(   79) = (   0.2310178   0.0000000   0.0000000), wk =   0.0219780
        k(   80) = (   0.2117663   0.0000000   0.0000000), wk =   0.0219780
        k(   81) = (   0.1925148   0.0000000   0.0000000), wk =   0.0219780
        k(   82) = (   0.1732633   0.0000000   0.0000000), wk =   0.0219780
        k(   83) = (   0.1540119   0.0000000   0.0000000), wk =   0.0219780
        k(   84) = (   0.1347604   0.0000000   0.0000000), wk =   0.0219780
        k(   85) = (   0.1155089   0.0000000   0.0000000), wk =   0.0219780
        k(   86) = (   0.0962574   0.0000000   0.0000000), wk =   0.0219780
        k(   87) = (   0.0770059   0.0000000   0.0000000), wk =   0.0219780
        k(   88) = (   0.0577544   0.0000000   0.0000000), wk =   0.0219780
        k(   89) = (   0.0385030   0.0000000   0.0000000), wk =   0.0219780
        k(   90) = (   0.0192515   0.0000000   0.0000000), wk =   0.0219780
        k(   91) = (   0.0000000   0.0000000   0.0000000), wk =   0.0219780

     Dense  grid:    96569 G-vectors     FFT dimensions: (  32,  32, 240)

     Estimated max dynamical RAM per process >      31.32 MB

     Estimated total dynamical RAM >     375.90 MB

     Check: negative core charge=   -0.000002

     The potential is recalculated from file :
     ./work/Al2SO.save/charge-density


     negative rho (up, down):  1.197E-03 0.000E+00
     Starting wfcs are   16 randomized atomic wfcs +   20 random wfcs
     Checking if some PAW data can be deallocated... 

     Band Structure Calculation
     Davidson diagonalization with overlap

     ethr =  5.56E-11,  avg # of iterations = 69.9

     total cpu time spent up to now is      134.6 secs

     End of band structure calculation

          k = 0.0000 0.0000 0.0000 ( 12063 PWs)   bands (ev):

   -21.6523 -16.0002  -8.4966  -6.5516  -6.5469  -6.4189  -3.8203  -2.1487
    -2.1369  -0.6398   2.2164   2.9846   3.0821   3.8955   4.0290   4.3582
     5.3241   5.3273   5.3461   5.7328   6.7732   6.7996   7.2718   8.0354
     8.7346   8.7548   9.2864  10.0759  10.8544  10.8745  11.5255  12.4208
    12.7559  13.0270  13.0420  14.0566

          k = 0.0193-0.0111 0.0000 ( 12089 PWs)   bands (ev):

   -21.6505 -15.9953  -8.4927  -6.5663  -6.5499  -6.4150  -3.8109  -2.1752
    -2.1521  -0.6266   2.2224   2.9907   3.0890   3.9028   4.0400   4.3782
     5.2804   5.3406   5.3642   5.7402   6.7474   6.7889   7.2730   8.0516
     8.6829   8.7295   9.3324  10.0929  10.8387  10.8759  11.5469  12.4598
    12.7758  13.0157  13.0352  14.0720

          k = 0.0385-0.0222 0.0000 ( 12113 PWs)   bands (ev):

   -21.6451 -15.9808  -8.4812  -6.6113  -6.5565  -6.4038  -3.7839  -2.2736
    -2.1756  -0.5878   2.2404   3.0088   3.1096   3.9240   4.0684   4.4384
     5.1913   5.3680   5.3929   5.7614   6.6348   6.8035   7.2752   8.0935
     8.5303   8.6923   9.4362  10.1369  10.7689  10.9111  11.6083  12.5643
    12.8114  12.9808  13.0504  14.1063

          k = 0.0578-0.0333 0.0000 ( 12137 PWs)   bands (ev):

   -21.6362 -15.9566  -8.4625  -6.6820  -6.5673  -6.3858  -3.7419  -2.4294
    -2.2137  -0.5252   2.2701   3.0382   3.1436   3.9577   4.1052   4.5335
     5.0654   5.3891   5.4533   5.7947   6.4725   6.8328   7.2747   8.1483
     8.3463   8.6318   9.5519  10.1977  10.6871  10.9531  11.7066  12.6861
    12.7832  12.9978  13.1358  14.1440

          k = 0.0770-0.0443 0.0000 ( 12129 PWs)   bands (ev):

   -21.6238 -15.9229  -8.4375  -6.7730  -6.5825  -6.3614  -3.6891  -2.6302
    -2.2674  -0.4408   2.3109   3.0782   3.1908   4.0022   4.1440   4.6418
     4.9208   5.4054   5.5385   5.8386   6.2880   6.8781   7.2667   8.1663
     8.2111   8.5520   9.6445  10.2735  10.6235  10.9834  11.8403  12.6536
    12.8058  13.0787  13.3276  14.1851

          k = 0.0963-0.0554 0.0000 ( 12135 PWs)   bands (ev):

   -21.6082 -15.8798  -8.4076  -6.8782  -6.6022  -6.3307  -3.6311  -2.8628
    -2.3369  -0.3366   2.3624   3.1276   3.2508   4.0541   4.1811   4.6570
     4.8615   5.4146   5.6275   5.8853   6.1115   6.9484   7.2500   8.0230
     8.2607   8.4739   9.6908  10.3652  10.5922  10.9913  12.0045  12.5508
    12.8296  13.2121  13.5842  14.2462

          k = 0.1155-0.0665 0.0000 ( 12141 PWs)   bands (ev):

   -21.5895 -15.8275  -8.3749  -6.9909  -6.6268  -6.2941  -3.5798  -3.1082
    -2.4227  -0.2147   2.4235   3.1850   3.3229   4.0977   4.2122   4.5250
     4.9579   5.4054   5.6794   5.8673   6.0394   7.0613   7.2332   7.9035
     8.2816   8.4514   9.6915  10.4612  10.5892  10.9777  12.1776  12.4728
    12.8425  13.3453  13.8418  14.3714

          k = 0.1348-0.0776 0.0000 ( 12137 PWs)   bands (ev):

   -21.5678 -15.7664  -8.3428  -7.1035  -6.6563  -6.2519  -3.5912  -3.3042
    -2.5247  -0.0771   2.4931   3.2470   3.4059   4.0635   4.2501   4.4441
     5.0721   5.3591   5.6208   5.8215   6.1041   7.2068   7.2465   7.7915
     8.2941   8.5037   9.6622  10.5122  10.6256  10.9576  12.2758  12.4898
    12.8815  13.4448  14.0392  14.5975

          k = 0.1540-0.0887 0.0000 ( 12143 PWs)   bands (ev):

   -21.5436 -15.6966  -8.3166  -7.2073  -6.6910  -6.2050  -3.7827  -3.3278
    -2.6431   0.0740   2.5694   3.3040   3.4959   3.9238   4.3102   4.4619
     5.1744   5.2671   5.4938   5.8360   6.2002   7.2186   7.3812   7.7434
     8.3654   8.5884   9.6158  10.4690  10.7151  10.9563  12.2722  12.5892
    12.9700  13.5143  14.1948  14.6811

          k = 0.1733-0.0998 0.0000 ( 12147 PWs)   bands (ev):

   -21.5170 -15.6186  -8.3035  -7.2922  -6.7311  -6.1541  -4.0544  -3.2744
    -2.7773   0.2366   2.6494   3.3221   3.5805   3.7969   4.3659   4.5299
     5.1294   5.2316   5.4230   5.8735   6.3121   7.1720   7.3859   7.8979
     8.5235   8.6904   9.5578  10.3660  10.8155  10.9876  12.2657  12.6601
    13.0662  13.6002  14.3436  14.5602

          k = 0.1925-0.1108 0.0000 ( 12133 PWs)   bands (ev):

   -21.4884 -15.5328  -8.3115  -7.3479  -6.7767  -6.1009  -4.3376  -3.2078
    -2.9261   0.4084   2.7269   3.2318   3.6440   3.8013   4.3955   4.6167
     5.0076   5.1625   5.4938   5.9278   6.4381   7.0303   7.3960   8.1081
     8.7693   8.8232   9.4906  10.2350  10.9103  11.0542  12.2762  12.7048
    13.0996  13.7266  14.3796  14.5311

          k = 0.2118-0.1219 0.0000 ( 12131 PWs)   bands (ev):

   -21.4581 -15.4398  -8.3460  -7.3675  -6.8281  -6.0480  -4.6156  -3.1473
    -3.0809   0.5873   2.7786   3.0691   3.7198   3.8848   4.3789   4.6931
     4.9530   5.0900   5.6132   5.9957   6.5774   6.8485   7.4371   8.2807
     8.9209   9.1291   9.4347  10.1082  10.9928  11.1569  12.2984  12.7311
    13.0831  13.7908  14.3099  14.6908

          k = 0.2310-0.1330 0.0000 ( 12141 PWs)   bands (ev):

   -21.4266 -15.3401  -8.4059  -7.3511  -6.8853  -6.0004  -4.8776  -3.2729
    -3.0635   0.7710   2.7000   2.9982   3.7986   3.9527   4.3462   4.7474
     4.9611   5.0933   5.7470   6.0753   6.6600   6.7345   7.4909   8.4125
     9.0574   9.2363   9.6199  10.0293  11.0697  11.2875  12.3188  12.7318
    13.0577  13.6912  14.3790  14.4979

          k = 0.2503-0.1441 0.0000 ( 12139 PWs)   bands (ev):

   -21.3942 -15.2346  -8.4843  -7.3057  -6.9484  -5.9687  -5.1087  -3.4599
    -2.9989   0.9569   2.4905   3.0406   3.7850   4.0136   4.3978   4.7949
     4.9581   5.2097   5.8897   6.1642   6.4942   6.8958   7.5529   8.4898
     9.1522   9.2190   9.8063  10.1857  11.1498  11.4394  12.3167  12.6958
    13.0480  13.5330  14.1917  14.4680

          k = 0.2695-0.1552 0.0000 ( 12133 PWs)   bands (ev):

   -21.3613 -15.1241  -8.5725  -7.2410  -7.0174  -5.9747  -5.2830  -3.6579
    -2.9370   1.1415   2.2549   3.0974   3.6497   4.1299   4.5255   4.8264
     4.9938   5.3728   6.0361   6.2442   6.3723   7.0689   7.6226   8.4732
     9.1414   9.3640   9.7962  10.5616  11.2344  11.6158  12.2663  12.6306
    13.0513  13.4060  13.9294  14.1793

          k = 0.2888-0.1663 0.0000 ( 12131 PWs)   bands (ev):

   -21.3283 -15.0095  -8.6633  -7.1676  -7.0918  -6.0432  -5.3704  -3.8641
    -2.8797   1.3184   2.0197   3.1454   3.4850   4.2689   4.6626   4.8638
     5.0789   5.5577   6.1330   6.2535   6.4200   7.2457   7.7011   8.3628
     9.2020   9.5115   9.7885  10.8951  11.3113  11.8285  12.1597  12.5691
    13.0219  13.3733  13.6417  13.8865

          k = 0.3080-0.1774 0.0000 ( 12103 PWs)   bands (ev):

   -21.2957 -14.8920  -8.7514  -7.1738  -7.0950  -6.1624  -5.3743  -4.0764
    -2.8283   1.4659   1.8083   3.1769   3.3321   4.4101   4.7346   4.9883
     5.1945   5.7563   6.0809   6.3896   6.5477   7.4091   7.7909   8.2220
     9.2929   9.6210   9.8440  11.1143  11.3361  11.9922  12.1198  12.5244
    12.9673  13.2826  13.4638  13.5808

          k = 0.3273-0.1884 0.0000 ( 12089 PWs)   bands (ev):

   -21.2639 -14.7729  -8.8329  -7.2591  -7.0445  -6.2840  -5.3284  -4.2928
    -2.7835   1.4519   1.7489   3.1632   3.2367   4.5136   4.7906   5.1856
     5.3310   5.9476   6.0557   6.5569   6.6985   7.5060   7.9040   8.1310
     9.3539   9.6940   9.9847  11.2195  11.2520  11.9401  12.2947  12.4794
    12.9480  12.9746  13.2475  13.3237

          k = 0.3465-0.1995 0.0000 ( 12105 PWs)   bands (ev):

   -21.2333 -14.6537  -8.9053  -7.3498  -7.0375  -6.3620  -5.2570  -4.5114
    -2.7462   1.2605   1.8497   3.0890   3.2290   4.5283   4.9209   5.4102
     5.4844   6.0059   6.2117   6.7315   6.8677   7.4702   8.0611   8.1566
     9.3474   9.7923  10.1606  11.0628  11.2448  11.9226  12.3230  12.4182
    12.6829  12.8368  12.9280  13.2024

          k = 0.3658-0.2106 0.0000 ( 12103 PWs)   bands (ev):

   -21.2042 -14.5359  -8.9667  -7.4450  -7.0872  -6.3735  -5.1719  -4.7299
    -2.7168   1.0477   1.9460   3.0464   3.2315   4.4836   5.1048   5.6361
     5.6641   6.0489   6.4272   6.9118   7.0514   7.3581   8.2141   8.3090
     9.2904   9.9033  10.3394  10.8421  11.2108  11.9082  12.1025  12.3677
    12.4555  12.5792  12.6819  13.0986

          k = 0.3850-0.2217 0.0000 ( 12082 PWs)   bands (ev):

   -21.1770 -14.4214  -9.0157  -7.5441  -7.1754  -6.3332  -5.0844  -4.9405
    -2.6953   0.8382   2.0093   3.0442   3.2427   4.4141   5.3102   5.8167
     5.9020   6.1345   6.6226   7.0949   7.2292   7.2889   8.3449   8.5338
     9.2117   9.9856  10.4423  10.6934  11.1655  11.7845  11.8801  12.0837
    12.2305  12.4201  12.5730  12.8504

          k = 0.4043-0.2328 0.0000 ( 12080 PWs)   bands (ev):

   -21.1521 -14.3120  -9.0513  -7.6463  -7.2738  -6.2680  -5.1768  -4.9626
    -2.6810   0.6368   2.0421   3.0558   3.2837   4.3347   5.5246   5.9914
     6.1189   6.2837   6.7420   7.2434   7.3409   7.4554   8.4714   8.7551
     9.1517  10.0032  10.2965  10.8077  11.1319  11.5037  11.7498  11.7905
    11.9156  12.3285  12.4334  12.5786

          k = 0.4235-0.2439 0.0000 ( 12056 PWs)   bands (ev):

   -21.1295 -14.2097  -9.0730  -7.7509  -7.3638  -6.1957  -5.3847  -4.8616
    -2.6727   0.4460   2.0574   3.0541   3.3655   4.2538   5.7396   6.1326
     6.2806   6.5146   6.8062   7.4205   7.5515   7.6523   8.5648   8.8770
     9.2278   9.9273  10.1335  10.9192  11.1338  11.2438  11.4764  11.5631
    11.7188  12.1431  12.2503  12.3315

          k = 0.4428-0.2550 0.0000 ( 12042 PWs)   bands (ev):

   -21.1096 -14.1163  -9.0805  -7.8570  -7.4359  -6.1258  -5.5906  -4.7566
    -2.6685   0.2680   2.0673   3.0407   3.4681   4.1791   5.9421   6.1796
     6.4686   6.7564   6.9507   7.6426   7.7878   7.8446   8.5752   8.9243
     9.4583   9.7712  10.0447  10.7836  11.0094  11.1707  11.2796  11.3429
    11.6286  11.9108  12.0251  12.0750

          k = 0.4620-0.2660 0.0000 ( 12040 PWs)   bands (ev):

   -21.0925 -14.0335  -9.0738  -7.9634  -7.4847  -6.0632  -5.7900  -4.6541
    -2.6659   0.1049   2.0780   3.0265   3.5628   4.1194   6.0532   6.2467
     6.6898   6.9707   7.2096   7.8464   7.9749   8.0891   8.5332   8.9929
     9.5477   9.7896   9.9990  10.5627  10.7841  10.9176  11.0124  11.4791
    11.5571  11.6611  11.8030  11.8403

          k = 0.4813-0.2771 0.0000 ( 12032 PWs)   bands (ev):

   -21.0782 -13.9629  -9.0535  -8.0689  -7.5080  -6.0121  -5.9787  -4.5591
    -2.6624  -0.0407   2.0902   3.0211   3.6226   4.0864   6.0333   6.4344
     6.9228   7.1799   7.5174   7.9329   8.1644   8.3507   8.5439   9.0699
     9.3969   9.9545  10.0833  10.3547  10.5568  10.6726  10.7908  11.3091
    11.3868  11.5270  11.5823  11.8735

          k = 0.5005-0.2882 0.0000 ( 12036 PWs)   bands (ev):

   -21.0668 -13.9054  -9.0207  -8.1716  -7.5055  -6.1602  -5.9671  -4.4765
    -2.6560  -0.1657   2.1009   3.0324   3.6303   4.0857   6.0081   6.6460
     7.1461   7.3706   7.8119   7.9699   8.3497   8.4531   8.7698   9.1640
     9.2612   9.8713  10.1405  10.3255  10.3724  10.4868  10.6805  11.1199
    11.1409  11.2808  11.4184  11.9850

          k = 0.5198-0.2993 0.0000 ( 12034 PWs)   bands (ev):

   -21.0582 -13.8615  -8.9778  -8.2689  -7.4797  -6.3231  -5.9356  -4.4104
    -2.6461  -0.2667   2.1067   3.0659   3.5932   4.1030   6.0065   6.8575
     7.3068   7.5039   7.9564   8.2237   8.3705   8.6094   9.0527   9.1611
     9.2981   9.7535   9.9630  10.0955  10.1945  10.6387  10.7483  10.8961
    10.9819  11.0582  11.3031  11.8350

          k = 0.5390-0.3104 0.0000 ( 12042 PWs)   bands (ev):

   -21.0523 -13.8313  -8.9295  -8.3558  -7.4377  -6.4625  -5.9143  -4.3636
    -2.6341  -0.3404   2.1060   3.1217   3.5312   4.1186   6.0272   7.0464
     7.3372   7.6170   8.1361   8.2952   8.5975   8.7674   9.0027   9.3284
     9.4535   9.6864   9.8065   9.9062   9.9904  10.5531  10.6648  10.7833
    10.8591  11.1201  11.3355  11.6070

          k = 0.5583-0.3215 0.0000 ( 12068 PWs)   bands (ev):

   -21.0489 -13.8140  -8.8861  -8.4222  -7.3939  -6.5639  -5.9024  -4.3368
    -2.6235  -0.3845   2.1012   3.1894   3.4633   4.1246   6.0553   7.1380
     7.3769   7.6713   8.2914   8.3316   8.7527   8.9245   9.0474   9.3000
     9.5075   9.6195   9.6934   9.9118  10.0068  10.4005  10.4759  10.5942
    10.7259  11.3130  11.4065  11.6314

          k = 0.5775-0.3325 0.0000 ( 12068 PWs)   bands (ev):

   -21.0479 -13.8086  -8.8662  -8.4497  -7.3731  -6.6037  -5.8987  -4.3285
    -2.6191  -0.3987   2.0980   3.2288   3.4266   4.1245   6.0692   7.1378
     7.4420   7.6658   8.3091   8.4282   8.7216   8.9350   9.2979   9.3421
     9.4258   9.4305   9.5792  10.0825  10.1612  10.2838  10.3737  10.4794
    10.6336  11.2769  11.5450  11.7072

          k = 0.5775-0.3215 0.0000 ( 12068 PWs)   bands (ev):

   -21.0481 -13.8097  -8.8726  -8.4414  -7.3796  -6.5926  -5.8995  -4.3303
    -2.6204  -0.3955   2.0993   3.2174   3.4358   4.1255   6.0647   7.1425
     7.4161   7.6683   8.2878   8.4238   8.7180   8.9575   9.2256   9.3077
     9.3941   9.4930   9.6728  10.0491  10.1200  10.2537  10.3889  10.5487
    10.6755  11.2896  11.5164  11.6846

          k = 0.5775-0.3104 0.0000 ( 12072 PWs)   bands (ev):

   -21.0488 -13.8133  -8.8888  -8.4197  -7.3980  -6.5605  -5.9018  -4.3355
    -2.6245  -0.3864   2.1039   3.1869   3.4595   4.1295   6.0529   7.1568
     7.3508   7.6632   8.2214   8.4464   8.6868   9.0191   9.1432   9.2208
     9.3322   9.5976   9.8402   9.9764  10.0711  10.2012  10.3587  10.7188
    10.7821  11.3182  11.4627  11.6308

          k = 0.5775-0.2993 0.0000 ( 12072 PWs)   bands (ev):

   -21.0499 -13.8190  -8.9127  -8.3867  -7.4271  -6.5093  -5.9055  -4.3437
    -2.6316  -0.3723   2.1130   3.1461   3.4864   4.1384   6.0350   7.1784
     7.2570   7.6361   8.1359   8.4979   8.6358   9.0402   9.0928   9.1472
     9.2926   9.6815   9.8918   9.9848  10.0400  10.1971  10.3252  10.8994
    10.9247  11.3520  11.4086  11.5767

          k = 0.5775-0.2882 0.0000 ( 12058 PWs)   bands (ev):

   -21.0514 -13.8266  -8.9421  -8.3450  -7.4641  -6.4420  -5.9103  -4.3545
    -2.6417  -0.3546   2.1274   3.1004   3.5086   4.1539   6.0134   7.1256
     7.2165   7.5874   8.0525   8.5576   8.5844   8.9761   9.0357   9.1065
     9.3357   9.7143   9.8082   9.9615  10.1130  10.2516  10.3717  11.0259
    11.1174  11.3484  11.3950  11.5477

          k = 0.5775-0.2771 0.0000 ( 12056 PWs)   bands (ev):

   -21.0533 -13.8360  -8.9749  -8.2967  -7.5067  -6.3615  -5.9157  -4.3674
    -2.6547  -0.3344   2.1482   3.0524   3.5217   4.1768   5.9909   6.9775
     7.2467   7.5281   7.9772   8.5088   8.6377   8.9125   8.9631   9.0574
     9.4173   9.7073   9.7340   9.9039  10.1387  10.3328  10.5435  11.0958
    11.2924  11.3209  11.4394  11.5624

          k = 0.5775-0.2660 0.0000 ( 12042 PWs)   bands (ev):

   -21.0556 -13.8469  -9.0096  -8.2434  -7.5527  -6.2709  -5.9213  -4.3819
    -2.6703  -0.3133   2.1761   3.0035   3.5238   4.2069   5.9697   6.8049
     7.2730   7.4724   7.9092   8.4441   8.6764   8.8604   8.9002   9.0253
     9.4667   9.6419   9.7300   9.8638  10.1115  10.4753  10.7441  11.1033
    11.2437  11.4439  11.5306  11.6266

          k = 0.5775-0.2550 0.0000 ( 12038 PWs)   bands (ev):

   -21.0581 -13.8591  -9.0452  -8.1863  -7.6005  -6.1737  -5.9252  -4.3976
    -2.6883  -0.2927   2.2115   2.9550   3.5147   4.2422   5.9514   6.6160
     7.2788   7.4377   7.8467   8.3792   8.6597   8.8033   8.8602   9.0421
     9.4600   9.5679   9.7217   9.8973  10.0794  10.6285  10.9449  11.0912
    11.1840  11.4705  11.5384  11.7443

          k = 0.5775-0.2439 0.0000 ( 12052 PWs)   bands (ev):

   -21.0609 -13.8723  -9.0811  -8.1264  -7.6490  -6.0774  -5.9215  -4.4142
    -2.7082  -0.2738   2.2546   2.9080   3.4955   4.2799   5.9347   6.4207
     7.2524   7.4350   7.7884   8.3152   8.6085   8.7380   8.8259   9.1002
     9.4230   9.4988   9.6848   9.9743  10.0756  10.7581  11.0576  11.1214
    11.1751  11.4732  11.5164  11.8173

          k = 0.5775-0.2328 0.0000 ( 12062 PWs)   bands (ev):

   -21.0639 -13.8863  -9.1167  -8.0643  -7.6972  -6.0095  -5.8838  -4.4313
    -2.7297  -0.2579   2.3046   2.8639   3.4676   4.3169   5.9087   6.2370
     7.2072   7.4493   7.7343   8.2527   8.5466   8.6722   8.7925   9.1593
     9.3775   9.4375   9.6547   9.9792  10.1692  10.8232  11.0606  11.0998
    11.3361  11.4587  11.5731  11.8571

          k = 0.5775-0.2217 0.0000 ( 12056 PWs)   bands (ev):

   -21.0671 -13.9010  -9.1516  -8.0009  -7.7446  -5.9929  -5.7901  -4.4484
    -2.7524  -0.2457   2.3591   2.8256   3.4327   4.3502   5.8317   6.1125
     7.1570   7.4644   7.6847   8.1923   8.4827   8.6078   8.7626   9.1864
     9.3311   9.3875   9.6509   9.9579  10.2979  10.8263  11.0109  11.1303
    11.4107  11.5190  11.7117  11.8830

          k = 0.5775-0.2106 0.0000 ( 12056 PWs)   bands (ev):

   -21.0704 -13.9162  -9.1857  -7.9370  -7.7901  -5.9959  -5.6733  -4.4652
    -2.7760  -0.2379   2.4130   2.7984   3.3923   4.3766   5.6737   6.0820
     7.1070   7.4733   7.6408   8.1342   8.4195   8.5456   8.7364   9.1721
     9.2839   9.3466   9.6795   9.9403  10.4244  10.8063  10.9669  11.1330
    11.4124  11.6776  11.7963  11.9901

          k = 0.5775-0.1995 0.0000 ( 12058 PWs)   bands (ev):

   -21.0738 -13.9316  -9.2188  -7.8779  -7.8286  -6.0040  -5.5487  -4.4812
    -2.8001  -0.2350   2.4556   2.7925   3.3476   4.3936   5.4835   6.1006
     7.0589   7.4729   7.6042   8.0786   8.3585   8.4861   8.7130   9.1335
     9.2365   9.3050   9.7220   9.9351  10.5320  10.7827  10.9366  11.1210
    11.4205  11.7456  11.8972  12.1936

          k = 0.5775-0.1884 0.0000 ( 12066 PWs)   bands (ev):

   -21.0772 -13.9470  -9.2505  -7.8855  -7.7986  -6.0140  -5.4206  -4.4958
    -2.8243  -0.2369   2.4738   2.8204   3.2996   4.3975   5.2926   6.1408
     7.0135   7.4625   7.5760   8.0256   8.3002   8.4295   8.6912   9.0859
     9.1911   9.2599   9.7505   9.9506  10.5998  10.7612  10.9325  11.1143
    11.4354  11.7082  12.0986  12.4064

          k = 0.5775-0.1774 0.0000 ( 12066 PWs)   bands (ev):

   -21.0807 -13.9625  -9.2810  -7.9244  -7.7355  -6.0247  -5.2915  -4.5082
    -2.8484  -0.2437   2.4650   2.8837   3.2494   4.3837   5.1156   6.1934
     6.9709   7.4451   7.5545   7.9752   8.2450   8.3760   8.6698   9.0360
     9.1485   9.2130   9.7532   9.9828  10.6181  10.7366  10.9561  11.1340
    11.4357  11.6921  12.3070  12.5665

          k = 0.5775-0.1663 0.0000 ( 12062 PWs)   bands (ev):

   -21.0841 -13.9776  -9.3099  -7.9631  -7.6713  -6.0359  -5.1637  -4.5170
    -2.8721  -0.2549   2.4381   2.9713   3.1978   4.3452   4.9647   6.2532
     6.9316   7.4258   7.5365   7.9274   8.1931   8.3257   8.6480   8.9864
     9.1084   9.1663   9.7373  10.0139  10.6051  10.7049  10.9811  11.1965
    11.3977  11.7368  12.4941  12.6026

          k = 0.5775-0.1552 0.0000 ( 12048 PWs)   bands (ev):

   -21.0875 -13.9925  -9.3373  -7.9999  -7.6079  -6.0471  -5.0406  -4.5196
    -2.8951  -0.2701   2.4019   3.0704   3.1470   4.2763   4.8505   6.3156
     6.8958   7.4095   7.5197   7.8823   8.1447   8.2786   8.6255   8.9381
     9.0699   9.1210   9.7096  10.0316  10.5769  10.6684  10.9993  11.2904
    11.3415  11.8320  12.5439  12.6664

          k = 0.5775-0.1441 0.0000 ( 12044 PWs)   bands (ev):

   -21.0908 -14.0068  -9.3630  -8.0346  -7.5459  -6.0583  -4.9280  -4.5111
    -2.9174  -0.2889   2.3609   3.0869   3.1829   4.1812   4.7748   6.3760
     6.8641   7.3993   7.5038   7.8399   8.1001   8.2350   8.6021   8.8915
     9.0312   9.0787   9.6722  10.0325  10.5402  10.6298  11.0112  11.2874
    11.4101  11.9555  12.5145  12.7005

          k = 0.5775-0.1330 0.0000 ( 12034 PWs)   bands (ev):

   -21.0940 -14.0205  -9.3871  -8.0669  -7.4858  -6.0693  -4.8357  -4.4828
    -2.9386  -0.3106   2.3171   3.0343   3.2824   4.0783   4.7285   6.4292
     6.8371   7.3963   7.4905   7.8000   8.0594   8.1947   8.5782   8.8468
     8.9908   9.0405   9.6254  10.0187  10.4986  10.5901  11.0066  11.2711
    11.5359  12.0925  12.4809  12.6969

          k = 0.5775-0.1219 0.0000 ( 12042 PWs)   bands (ev):

   -21.0971 -14.0335  -9.4094  -8.0969  -7.4282  -6.0799  -4.7741  -4.4252
    -2.9587  -0.3346   2.2717   2.9799   3.3622   3.9954   4.7004   6.4704
     6.8157   7.3975   7.4853   7.7628   8.0230   8.1580   8.5542   8.8037
     8.9479   9.0064   9.5693   9.9948  10.4554  10.5500  10.9801  11.2943
    11.6692  12.2249  12.4611  12.6861

          k = 0.5775-0.1108 0.0000 ( 12060 PWs)   bands (ev):

   -21.1000 -14.0457  -9.4299  -8.1244  -7.3735  -6.0902  -4.7423  -4.3402
    -2.9775  -0.3601   2.2250   2.9248   3.3967   3.9650   4.6828   6.4958
     6.8001   7.3949   7.4973   7.7285   7.9915   8.1251   8.5304   8.7618
     8.9030   8.9753   9.5054   9.9656  10.4133  10.5103  10.9425  11.3448
    11.8047  12.3038  12.5002  12.6787

          k = 0.5775-0.0998 0.0000 ( 12056 PWs)   bands (ev):

   -21.1026 -14.0570  -9.4486  -8.1495  -7.3222  -6.0998  -4.7295  -4.2401
    -2.9948  -0.3866   2.1772   2.8693   3.3749   4.0025   4.6720   6.5047
     6.7895   7.3842   7.5293   7.6974   7.9656   8.0963   8.5072   8.7204
     8.8567   8.9461   9.4366   9.9349  10.3740  10.4714  10.9039  11.4093
    11.9354  12.3057  12.6149  12.6813

          k = 0.5775-0.0887 0.0000 ( 12052 PWs)   bands (ev):

   -21.1051 -14.0673  -9.4654  -8.1719  -7.2746  -6.1089  -4.7261  -4.1357
    -3.0106  -0.4133   2.1287   2.8139   3.3184   4.0874   4.6665   6.4989
     6.7822   7.3687   7.5722   7.6718   7.9470   8.0723   8.4848   8.6788
     8.8098   8.9180   9.3673   9.9051  10.3381  10.4341  10.8685  11.4795
    12.0513  12.2864  12.6582  12.7019

          k = 0.5775-0.0776 0.0000 ( 12052 PWs)   bands (ev):

   -21.1073 -14.0765  -9.4803  -8.1918  -7.2314  -6.1171  -4.7271  -4.0335
    -3.0247  -0.4394   2.0799   2.7597   3.2531   4.1922   4.6665   6.4821
     6.7760   7.3514   7.6039   7.6637   7.9378   8.0549   8.4634   8.6361
     8.7636   8.8907   9.3021   9.8774  10.3060  10.3991  10.8376  11.5505
    12.1377  12.2705  12.6226  12.7427

          k = 0.5775-0.0665 0.0000 ( 12048 PWs)   bands (ev):

   -21.1093 -14.0846  -9.4932  -8.2091  -7.1928  -6.1246  -4.7301  -3.9378
    -3.0372  -0.4643   2.0316   2.7083   3.1924   4.2985   4.6740   6.4574
     6.7699   7.3341   7.5981   7.6887   7.9391   8.0488   8.4427   8.5925
     8.7190   8.8642   9.2444   9.8523  10.2774  10.3673  10.8113  11.6183
    12.1780  12.2721  12.5880  12.8065

          k = 0.5775-0.0554 0.0000 ( 12054 PWs)   bands (ev):

   -21.1110 -14.0916  -9.5042  -8.2238  -7.1594  -6.1311  -4.7336  -3.8515
    -3.0479  -0.4871   1.9855   2.6617   3.1410   4.3924   4.6933   6.4277
     6.7638   7.3175   7.5805   7.7136   7.9451   8.0638   8.4222   8.5501
     8.6763   8.8390   9.1963   9.8303  10.2522  10.3394  10.7896  11.6796
    12.1805  12.2872  12.5581  12.8710

          k = 0.5775-0.0443 0.0000 ( 12056 PWs)   bands (ev):

   -21.1124 -14.0973  -9.5132  -8.2358  -7.1315  -6.1366  -4.7372  -3.7772
    -3.0567  -0.5071   1.9433   2.6218   3.1002   4.4619   4.7298   6.3956
     6.7578   7.3025   7.5633   7.7261   7.9463   8.1054   8.4012   8.5125
     8.6347   8.8161   9.1583   9.8114  10.2306  10.3162  10.7721  11.7318
    12.1731  12.2975  12.5338  12.9089

          k = 0.5775-0.0333 0.0000 ( 12054 PWs)   bands (ev):

   -21.1135 -14.1018  -9.5203  -8.2451  -7.1093  -6.1410  -4.7402  -3.7169
    -3.0636  -0.5236   1.9074   2.5899   3.0695   4.5033   4.7808   6.3642
     6.7526   7.2898   7.5489   7.7301   7.9429   8.1640   8.3798   8.4835
     8.5930   8.7966   9.1300   9.7961  10.2127  10.2981  10.7588  11.7727
    12.1666  12.3011  12.5152  12.9239

          k = 0.5775-0.0222 0.0000 ( 12056 PWs)   bands (ev):

   -21.1143 -14.1051  -9.5253  -8.2518  -7.0933  -6.1442  -4.7425  -3.6724
    -3.0686  -0.5360   1.8798   2.5668   3.0483   4.5242   4.8322   6.3372
     6.7485   7.2800   7.5381   7.7303   7.9387   8.2265   8.3597   8.4643
     8.5514   8.7817   9.1106   9.7848  10.1994  10.2852  10.7494  11.8015
    12.1631  12.3011  12.5023  12.9290

          k = 0.5775-0.0111 0.0000 ( 12056 PWs)   bands (ev):

   -21.1148 -14.1070  -9.5283  -8.2558  -7.0836  -6.1462  -4.7439  -3.6451
    -3.0716  -0.5436   1.8625   2.5529   3.0359   4.5336   4.8692   6.3186
     6.7459   7.2739   7.5315   7.7296   7.9356   8.2811   8.3431   8.4536
     8.5148   8.7725   9.0993   9.7777  10.1910  10.2775  10.7437  11.8182
    12.1618  12.3000  12.4947  12.9304

          k = 0.5775 0.0000 0.0000 ( 12070 PWs)   bands (ev):

   -21.1149 -14.1077  -9.5293  -8.2572  -7.0804  -6.1468  -4.7444  -3.6359
    -3.0726  -0.5462   1.8565   2.5482   3.0318   4.5363   4.8826   6.3120
     6.7450   7.2718   7.5292   7.7292   7.9346   8.3096   8.3320   8.4501
     8.4982   8.7693   9.0956   9.7754  10.1882  10.2750  10.7419  11.8237
    12.1616  12.2995  12.4922  12.9307

          k = 0.5583 0.0000 0.0000 ( 12066 PWs)   bands (ev):

   -21.1165 -14.1159  -9.5238  -8.2428  -7.0791  -6.1541  -4.7567  -3.6328
    -3.0627  -0.5374   1.8605   2.5556   3.0317   4.5227   4.8860   6.2723
     6.7600   7.1762   7.4413   7.7647   8.0721   8.2038   8.3105   8.3661
     8.6133   8.8523   9.1828   9.6672  10.1541  10.3452  10.8469  11.7280
    12.1520  12.3063  12.5053  13.0071

          k = 0.5390 0.0000 0.0000 ( 12070 PWs)   bands (ev):

   -21.1213 -14.1402  -9.5074  -8.2000  -7.0751  -6.1756  -4.7919  -3.6236
    -3.0348  -0.5104   1.8719   2.5778   3.0318   4.4836   4.8963   6.1762
     6.7315   7.0468   7.2625   7.8315   7.9627   8.2386   8.3130   8.4728
     8.6292   9.0816   9.3333   9.5187  10.0141  10.5650  11.0578  11.5476
    12.1231  12.1739  12.6720  13.1564

          k = 0.5198 0.0000 0.0000 ( 12055 PWs)   bands (ev):

   -21.1292 -14.1797  -9.4801  -8.1300  -7.0684  -6.2105  -4.8456  -3.6082
    -2.9946  -0.4642   1.8888   2.6144   3.0320   4.4242   4.9133   6.0511
     6.5829   6.8805   7.2329   7.6504   7.8504   8.3169   8.4079   8.5776
     8.7977   9.1365   9.4147   9.6106   9.9525  10.7809  11.2777  11.3978
    12.0072  12.0752  12.8720  13.2156

          k = 0.5005 0.0000 0.0000 ( 12043 PWs)   bands (ev):

   -21.1401 -14.2331  -9.4424  -8.0345  -7.0592  -6.2577  -4.9126  -3.5867
    -2.9491  -0.3971   1.9083   2.6648   3.0334   4.3513   4.9369   5.9080
     6.3858   6.6590   7.2887   7.4134   7.7644   8.3218   8.5191   8.7053
     8.9536   9.0848   9.4869   9.8311  10.0943  10.8603  11.3521  11.4929
    11.9030  12.0081  12.9685  13.0241

          k = 0.4813 0.0000 0.0000 ( 12061 PWs)   bands (ev):

   -21.1539 -14.2987  -9.3946  -7.9161  -7.0475  -6.3151  -4.9877  -3.5593
    -2.9051  -0.3078   1.9263   2.7275   3.0380   4.2716   4.9670   5.7506
     6.1824   6.4374   7.1430   7.3168   7.7636   8.3269   8.5053   8.7656
     8.9339   9.2727   9.6007  10.1130  10.3466  10.7656  11.4040  11.6231
    11.9202  11.9968  12.6668  13.0552

          k = 0.4620 0.0000 0.0000 ( 12069 PWs)   bands (ev):

   -21.1704 -14.3747  -9.3372  -7.7784  -7.0334  -6.3796  -5.0669  -3.5260
    -2.8679  -0.1956   1.9379   2.7991   3.0502   4.1916   5.0033   5.5812
     5.9810   6.2310   6.9093   7.2185   7.8666   8.3313   8.3957   8.6779
     9.0151   9.4572   9.8804  10.3262  10.5909  10.7448  11.2953  11.8049
    11.8695  12.1825  12.3481  12.9866

          k = 0.4428 0.0000 0.0000 ( 12089 PWs)   bands (ev):

   -21.1893 -14.4590  -9.2708  -7.6265  -7.0170  -6.4466  -5.1470  -3.4870
    -2.8414  -0.0613   1.9382   2.8729   3.0784   4.1160   5.0456   5.4034
     5.7813   6.0463   6.6804   7.0891   7.9915   8.2297   8.3340   8.6180
     9.0556   9.7037  10.1768  10.3113  10.8114  10.9807  11.2181  11.6398
    12.0558  12.0867  12.3160  12.9652

          k = 0.4235 0.0000 0.0000 ( 12091 PWs)   bands (ev):

   -21.2103 -14.5498  -9.1959  -7.4685  -6.9985  -6.5083  -5.2258  -3.4426
    -2.8272   0.0929   1.9231   2.9393   3.1330   4.0489   5.0934   5.2217
     5.5817   5.8850   6.4594   6.9574   8.0436   8.0732   8.3334   8.6100
     9.1052   9.9176  10.1428  10.5669  10.9048  11.2471  11.3724  11.3914
    11.8374  12.0896  12.4786  12.9268

          k = 0.4043 0.0000 0.0000 ( 12107 PWs)   bands (ev):

   -21.2334 -14.6453  -9.1135  -7.3198  -6.9780  -6.5498  -5.3013  -3.3928
    -2.8257   0.2625   1.8917   2.9953   3.2155   3.9943   5.0408   5.1462
     5.3836   5.7448   6.2470   6.8330   7.8673   8.0587   8.3279   8.6850
     9.1596   9.8860  10.2143  10.7651  11.0315  11.0786  11.4786  11.6468
    11.6846  12.0847  12.5210  12.9944

          k = 0.3850 0.0000 0.0000 ( 12099 PWs)   bands (ev):

   -21.2580 -14.7438  -9.0244  -7.2083  -6.9558  -6.5444  -5.3713  -3.3381
    -2.8361   0.4401   1.8482   3.0459   3.3138   3.9578   4.8644   5.1894
     5.2035   5.6215   6.0437   6.7191   7.6896   7.9993   8.3154   8.8043
     9.1995   9.7576  10.2573  10.7448  10.8339  11.2827  11.5626  11.6265
    11.9403  12.2946  12.4433  13.0616

          k = 0.3658 0.0000 0.0000 ( 12107 PWs)   bands (ev):

   -21.2840 -14.8439  -8.9300  -7.1634  -6.9319  -6.4651  -5.4323  -3.2787
    -2.8572   0.6131   1.8038   3.0916   3.4141   3.9485   4.6960   5.0017
     5.2644   5.5118   5.8501   6.6161   7.5159   7.9336   8.2935   8.9124
     9.2061   9.6355  10.2126  10.4119  10.8349  11.4573  11.5003  11.9229
    12.0891  12.4794  12.6329  13.0002

          k = 0.3465 0.0000 0.0000 ( 12147 PWs)   bands (ev):

   -21.3110 -14.9443  -8.8317  -7.1793  -6.9068  -6.3242  -5.4771  -3.2149
    -2.8874   0.7598   1.7808   3.1238   3.5091   3.9744   4.5391   4.8227
     5.3280   5.4133   5.6673   6.5235   7.3473   7.8809   8.2597   8.9531
     9.1932   9.5097  10.0903  10.1507  10.8068  11.3658  11.7529  12.0153
    12.3189  12.6870  12.8933  13.1085

          k = 0.3273 0.0000 0.0000 ( 12171 PWs)   bands (ev):

   -21.3387 -15.0437  -8.7316  -7.2261  -6.8805  -6.1671  -5.4888  -3.1473
    -2.9254   0.8488   1.8113   3.1312   3.6025   4.0287   4.4014   4.6556
     5.3235   5.3931   5.4986   6.4399   7.1846   7.8479   8.2106   8.8809
     9.1917   9.3591   9.7869  10.1154  10.8382  11.2885  11.8020  12.1278
    12.6542  12.7938  13.1694  13.4787

          k = 0.3080 0.0000 0.0000 ( 12163 PWs)   bands (ev):

   -21.3667 -15.1412  -8.6324  -7.2821  -6.8534  -6.0473  -5.4340  -3.0763
    -2.9698   0.8582   1.9173   3.1097   3.7022   4.0686   4.3069   4.5092
     5.2332   5.3567   5.4582   6.3648   7.0289   7.8349   8.1430   8.7200
     9.1410   9.2292   9.5083  10.1307  10.9317  11.2262  11.6911  12.2929
    12.7995  13.1654  13.4812  13.8925

          k = 0.2888 0.0000 0.0000 ( 12151 PWs)   bands (ev):

   -21.3949 -15.2360  -8.5378  -7.3342  -6.8257  -5.9997  -5.2882  -3.0192
    -3.0024   0.7996   2.0867   3.0658   3.8028   4.0319   4.2660   4.4256
     5.1183   5.2721   5.5214   6.2984   6.8811   7.8368   8.0536   8.4922
     9.0122   9.1717   9.2610  10.1951  11.0442  11.1794  11.5904  12.3109
    13.0900  13.5195  13.7895  14.2485

          k = 0.2695 0.0000 0.0000 ( 12145 PWs)   bands (ev):

   -21.4227 -15.3272  -8.4530  -7.3736  -6.7978  -6.0069  -5.0744  -3.0728
    -2.9262   0.6990   2.2891   3.0114   3.8460   3.9876   4.2019   4.4498
     4.9859   5.2468   5.5803   6.2423   6.7421   7.8439   7.9407   8.2207
     8.9025   9.0508   9.1186  10.2911  11.1108  11.1477  11.5463  12.2932
    13.4350  13.6907  14.1620  14.1977

          k = 0.2503 0.0000 0.0000 ( 12165 PWs)   bands (ev):

   -21.4501 -15.4143  -8.3839  -7.3923  -6.7699  -6.0394  -4.8259  -3.1293
    -2.8485   0.5762   2.4921   2.9645   3.7792   3.9523   4.2194   4.4951
     4.8568   5.2654   5.6322   6.1997   6.6131   7.8062   7.8218   7.9579
     8.8181   8.8806   9.0769  10.4001  11.0849  11.1295  11.5801  12.3021
    13.5904  13.8828  14.1100  14.5324

          k = 0.2310 0.0000 0.0000 ( 12151 PWs)   bands (ev):

   -21.4766 -15.4967  -8.3361  -7.3842  -6.7424  -6.0816  -4.5615  -3.1878
    -2.7701   0.4427   2.6370   2.9719   3.6905   3.8665   4.3066   4.5390
     4.7406   5.3135   5.6739   6.1736   6.4956   7.6061   7.6570   7.8837
     8.7453   8.7493   9.0670  10.5053  11.0024  11.1223  11.6413  12.3532
    13.5050  13.9896  14.2134  14.5179

          k = 0.2118 0.0000 0.0000 ( 12151 PWs)   bands (ev):

   -21.5020 -15.5739  -8.3120  -7.3470  -6.7155  -6.1269  -4.2912  -3.2465
    -2.6917   0.3052   2.6567   3.0842   3.6087   3.7870   4.3518   4.5858
     4.6778   5.3681   5.7017   6.1615   6.3922   7.3487   7.5035   7.8671
     8.6526   8.6729   9.1012  10.5899  10.9035  11.1228  11.7010  12.4236
    13.3934  13.8462  14.3454  14.5160

          k = 0.1925 0.0000 0.0000 ( 12151 PWs)   bands (ev):

   -21.5261 -15.6455  -8.3094  -7.2835  -6.6897  -6.1719  -4.0233  -3.3023
    -2.6145   0.1684   2.6103   3.2069   3.5376   3.7596   4.3360   4.5255
     4.7842   5.4098   5.7125   6.1457   6.3049   7.1459   7.3561   7.8486
     8.5857   8.5981   9.1764  10.6359  10.8069  11.1268  11.7716  12.4609
    13.3155  13.6923  14.2073  14.6404

          k = 0.1733 0.0000 0.0000 ( 12153 PWs)   bands (ev):

   -21.5486 -15.7112  -8.3226  -7.2003  -6.6651  -6.2149  -3.7726  -3.3440
    -2.5393   0.0356   2.5488   3.2499   3.4679   3.8307   4.2899   4.4628
     4.9176   5.4345   5.7038   6.1042   6.2227   7.0435   7.2232   7.8326
     8.5232   8.5449   9.2804  10.6199  10.7342  11.1294  11.8670  12.4227
    13.2962  13.5399  14.0567  14.6491

          k = 0.1540 0.0000 0.0000 ( 12155 PWs)   bands (ev):

   -21.5693 -15.7707  -8.3455  -7.1050  -6.6422  -6.2550  -3.5982  -3.3160
    -2.4675  -0.0906   2.4862   3.2277   3.3957   3.9611   4.2349   4.4283
     5.0148   5.4529   5.6757   6.0430   6.1361   7.0516   7.1098   7.8308
     8.4504   8.5272   9.3980  10.5417  10.6925  11.1256  11.9841  12.3237
    13.3020  13.3991  13.9020  14.5097

          k = 0.1348 0.0000 0.0000 ( 12151 PWs)   bands (ev):

   -21.5881 -15.8237  -8.3729  -7.0043  -6.6212  -6.2915  -3.5794  -3.1421
    -2.4000  -0.2080   2.4270   3.1838   3.3263   4.0559   4.1919   4.4456
     5.0401   5.4712   5.6306   5.9743   6.0925   7.0172   7.1214   7.8588
     8.3813   8.5300   9.5112  10.4449  10.6551  11.1112  12.0690  12.2469
    13.2728  13.2782  13.7295  14.3333

          k = 0.1155 0.0000 0.0000 ( 12165 PWs)   bands (ev):

   -21.6047 -15.8700  -8.4012  -6.9041  -6.6023  -6.3239  -3.6202  -2.9215
    -2.3383  -0.3146   2.3735   3.1367   3.2635   4.0559   4.1732   4.5260
     5.0037   5.4713   5.5738   5.9110   6.1353   6.9440   7.1961   7.9329
     8.3169   8.5499   9.5965  10.3519  10.6250  11.0837  11.9897  12.3398
    13.1823  13.1827  13.5279  14.2330

          k = 0.0963 0.0000 0.0000 ( 12151 PWs)   bands (ev):

   -21.6190 -15.9095  -8.4280  -6.8091  -6.5859  -6.3519  -3.6702  -2.7085
    -2.2834  -0.4086   2.3268   3.0931   3.2091   4.0171   4.1510   4.5928
     4.9757   5.4504   5.5121   5.8583   6.2506   6.8873   7.2454   8.0541
     8.2610   8.5827   9.6265  10.2759  10.6193  11.0433  11.8674  12.4814
    13.0469  13.1131  13.3224  14.1869

          k = 0.0770 0.0000 0.0000 ( 12143 PWs)   bands (ev):

   -21.6308 -15.9420  -8.4516  -6.7238  -6.5721  -6.3752  -3.7184  -2.5179
    -2.2366  -0.4886   2.2877   3.0554   3.1640   3.9768   4.1213   4.5659
     5.0303   5.4239   5.4519   5.8149   6.3989   6.8442   7.2682   8.1541
     8.2664   8.6230   9.5893  10.2182  10.6523  10.9940  11.7549  12.6030
    12.8994  13.0684  13.1476  14.1571

          k = 0.0578 0.0000 0.0000 ( 12121 PWs)   bands (ev):

   -21.6402 -15.9674  -8.4708  -6.6521  -6.5612  -6.3938  -3.7603  -2.3585
    -2.1989  -0.5531   2.2568   3.0251   3.1284   3.9427   4.0894   4.4887
     5.1306   5.3992   5.3998   5.7803   6.5490   6.8124   7.2749   8.1241
     8.4186   8.6646   9.5050  10.1683  10.7182  10.9423  11.6605  12.6251
    12.8192  13.0285  13.0435  14.1279

          k = 0.0385 0.0000 0.0000 ( 12113 PWs)   bands (ev):

   -21.6469 -15.9856  -8.4850  -6.5976  -6.5533  -6.4075  -3.7927  -2.2380
    -2.1712  -0.6006   2.2344   3.0028   3.1028   3.9171   4.0594   4.4180
     5.2247   5.3585   5.3798   5.7546   6.6785   6.7904   7.2747   8.0805
     8.5797   8.7009   9.4060  10.1228  10.7935  10.8968  11.5881  12.5313
    12.8050  12.9992  13.0320  14.0964

          k = 0.0193 0.0000 0.0000 ( 12085 PWs)   bands (ev):

   -21.6510 -15.9965  -8.4937  -6.5633  -6.5485  -6.4160  -3.8132  -2.1626
    -2.1543  -0.6299   2.2209   2.9892   3.0873   3.9010   4.0373   4.3732
     5.2934   5.3328   5.3620   5.7384   6.7676   6.7775   7.2727   8.0477
     8.7047   8.7258   9.3219  10.0888  10.8523  10.8656  11.5417  12.4504
    12.7712  13.0270  13.0279  14.0684

          k = 0.0000 0.0000 0.0000 ( 12063 PWs)   bands (ev):

   -21.6523 -16.0002  -8.4966  -6.5516  -6.5469  -6.4189  -3.8203  -2.1487
    -2.1369  -0.6398   2.2164   2.9846   3.0821   3.8955   4.0290   4.3582
     5.3241   5.3273   5.3461   5.7328   6.7732   6.7996   7.2718   8.0354
     8.7346   8.7548   9.2864  10.0759  10.8544  10.8745  11.5255  12.4208
    12.7559  13.0270  13.0420  14.0566

     Writing all to output data dir ./work/Al2SO.save/

     init_run     :      0.56s CPU      0.60s WALL (       1 calls)
     electrons    :    127.89s CPU    133.76s WALL (       1 calls)

     Called by init_run:
     wfcinit      :      0.00s CPU      0.00s WALL (       1 calls)
     potinit      :      0.05s CPU      0.07s WALL (       1 calls)
     hinit0       :      0.43s CPU      0.44s WALL (       1 calls)

     Called by electrons:
     c_bands      :    127.89s CPU    133.75s WALL (       1 calls)
     v_of_rho     :      0.00s CPU      0.01s WALL (       1 calls)
     newd         :      0.05s CPU      0.07s WALL (       1 calls)
     PAW_pot      :      0.05s CPU      0.06s WALL (       1 calls)

     Called by c_bands:
     init_us_2    :      0.03s CPU      0.04s WALL (      91 calls)
     init_us_2:cp :      0.03s CPU      0.04s WALL (      91 calls)
     cegterg      :    125.75s CPU    131.43s WALL (     357 calls)

     Called by *egterg:
     cdiaghg      :     10.02s CPU     10.14s WALL (    6455 calls)
     h_psi        :     47.65s CPU     53.04s WALL (    6812 calls)
     s_psi        :      8.80s CPU      8.88s WALL (    6812 calls)
     g_psi        :      0.49s CPU      0.49s WALL (    6364 calls)

     Called by h_psi:
     h_psi:calbec :      8.88s CPU     10.01s WALL (    6812 calls)
     vloc_psi     :     29.99s CPU     33.93s WALL (    6812 calls)
     add_vuspsi   :      8.54s CPU      8.85s WALL (    6812 calls)

     General routines
     calbec       :      8.87s CPU     10.01s WALL (    6812 calls)
     fft          :      0.25s CPU      0.25s WALL (      12 calls)
     fftw         :     26.60s CPU     30.13s WALL (  266400 calls)
     davcio       :      0.05s CPU      0.07s WALL (     182 calls)

     Parallel routines

     PWSCF        :   2m 9.08s CPU   2m15.28s WALL


   This run was terminated on:   8:23:21  15Feb2023            

=------------------------------------------------------------------------------=
   JOB DONE.
=------------------------------------------------------------------------------=
