
     Program BANDS v.7.1 starts on 19Jun2023 at 22:18:56 

     This program is part of the open-source Quantum ESPRESSO suite
     for quantum simulation of materials; please cite
         "P. Giannozzi et al., J. Phys.:Condens. Matter 21 395502 (2009);
         "P. Giannozzi et al., J. Phys.:Condens. Matter 29 465901 (2017);
         "P. Giannozzi et al., J. Chem. Phys. 152 154105 (2020);
          URL http://www.quantum-espresso.org", 
     in publications or presentations arising from this work. More details at
     http://www.quantum-espresso.org/quote

     Parallel version (MPI), running on    22 processors

     MPI processes distributed on     1 nodes
     R & G space division:  proc/nbgrp/npool/nimage =      22
     46527 MiB available memory on the printing compute node when the environment starts
 

     Reading xml data from directory:

     ./work/Al2O2.save/
     Message from routine volume:
     axis vectors are left-handed
     file Al.pbe-n-kjpaw_psl.1.0.0.UPF: wavefunction(s)  3S 3P renormalized
     file O.pbe-n-kjpaw_psl.1.0.0.UPF: wavefunction(s)  2S 2P renormalized

     IMPORTANT: XC functional enforced from input :
     Exchange-correlation= PBE
                           (   1   4   3   4   0   0   0)
     Any further DFT definition will be discarded
     Please, verify this is what you really want

 
     Parallelization info
     --------------------
     sticks:   dense  smooth     PW     G-vecs:    dense   smooth      PW
     Min          23      23      7                 3655     3655     599
     Max          24      24      9                 3696     3696     613
     Sum         511     511    163                80843    80843   13357
 
     Using Slab Decomposition
 

     Check: negative core charge=   -0.000003

     negative rho (up, down):  1.882E-03 0.000E+00
     Reading collected, re-writing distributed wavefunctions
     high-symmetry point:  0.0000 0.0000 0.0000   x coordinate   0.0000
     high-symmetry point:  0.5775 0.3327 0.0000   x coordinate   0.6665
     high-symmetry point:  0.5775 0.0000 0.0000   x coordinate   0.9992
     high-symmetry point:  0.0000 0.0000 0.0000   x coordinate   1.5767

     Plottable bands (eV) written to file Al2O2.bands.gnu
     Bands written to file Al2O2.bands

 **************************************************************************

                    xk=(   0.00000,   0.00000,   0.00000  )

     point group C_s (m)    
     there are  2 classes
     the character table:

       E     s    
A'     1.00  1.00
A''    1.00 -1.00

     the symmetry operations in each class and the name of the first element:

     E        1
                                                                 
     s        2
                                                                 

     Band symmetry, C_s (m)     point group:

     e(  1 -  1) =    -22.42791  eV     1   --> A'             
     e(  2 -  2) =    -22.36356  eV     1   --> A'             
     e(  3 -  3) =     -9.34897  eV     1   --> A'             
     e(  4 -  4) =     -7.24141  eV     1   --> A'             
     e(  5 -  5) =     -6.39010  eV     1   --> A''            
     e(  6 -  6) =     -6.38227  eV     1   --> A'             
     e(  7 -  7) =     -6.36941  eV     1   --> A''            
     e(  8 -  8) =     -6.36163  eV     1   --> A'             
     e(  9 -  9) =     -4.25121  eV     1   --> A'             
     e( 10 - 10) =     -0.17826  eV     1   --> A'             
     e( 11 - 11) =      1.98062  eV     1   --> A'             
     e( 12 - 12) =      2.78556  eV     1   --> A'             
     e( 13 - 13) =      2.81214  eV     1   --> A'             
     e( 14 - 14) =      3.42140  eV     1   --> A'             
     e( 15 - 15) =      3.69405  eV     1   --> A'             
     e( 16 - 16) =      4.65024  eV     1   --> A'             
     e( 17 - 17) =      5.28318  eV     1   --> A'             
     e( 18 - 18) =      6.65520  eV     1   --> A'             
     e( 19 - 19) =      6.67725  eV     1   --> A'             
     e( 20 - 20) =      8.32972  eV     1   --> A'             
     e( 21 - 21) =      8.64318  eV     1   --> A''            
     e( 22 - 22) =      8.66332  eV     1   --> A'             
     e( 23 - 23) =      9.22964  eV     1   --> A'             
     e( 24 - 24) =      9.98953  eV     1   --> A''            
     e( 25 - 25) =     10.01074  eV     1   --> A'             
     e( 26 - 26) =     11.13411  eV     1   --> A'             
     e( 27 - 27) =     11.24407  eV     1   --> A'             
     e( 28 - 28) =     12.19536  eV     1   --> A''            
     e( 29 - 29) =     12.22177  eV     1   --> A'             
     e( 30 - 30) =     13.10333  eV     1   --> A'             
     e( 31 - 31) =     14.65619  eV     1   --> A'             
     e( 32 - 32) =     15.63127  eV     1   --> A''            
     e( 33 - 33) =     15.64460  eV     1   --> A'             
     e( 34 - 34) =     15.79417  eV     1   --> A'             
     e( 35 - 35) =     16.02715  eV     1   --> A'             
     e( 36 - 36) =     16.52010  eV     1   --> A''            
     e( 37 - 37) =     16.54380  eV     1   --> A'             
     e( 38 - 38) =     17.68381  eV     1   --> A'             
     e( 39 - 39) =     18.98127  eV     1   --> A'             
     e( 40 - 40) =     19.29003  eV     1   --> A'             

 **************************************************************************

 **************************************************************************

                    xk=(   0.01925,   0.01109,   0.00000  )

     point group C_1 (1)    
     there are  1 classes
     the character table:

       E    
A      1.00

     the symmetry operations in each class and the name of the first element:

     E        1
                                                                 

     Band symmetry, C_1 (1)     point group:

     e(  1 -  1) =    -22.42500  eV     1   --> A              
     e(  2 -  2) =    -22.36076  eV     1   --> A              
     e(  3 -  3) =     -9.34413  eV     1   --> A              
     e(  4 -  4) =     -7.23814  eV     1   --> A              
     e(  5 -  5) =     -6.40425  eV     1   --> A              
     e(  6 -  6) =     -6.38998  eV     1   --> A              
     e(  7 -  7) =     -6.38266  eV     1   --> A              
     e(  8 -  8) =     -6.36919  eV     1   --> A              
     e(  9 -  9) =     -4.24109  eV     1   --> A              
     e( 10 - 10) =     -0.15915  eV     1   --> A              
     e( 11 - 11) =      1.99138  eV     1   --> A              
     e( 12 - 12) =      2.79330  eV     1   --> A              
     e( 13 - 13) =      2.82117  eV     1   --> A              
     e( 14 - 14) =      3.43162  eV     1   --> A              
     e( 15 - 15) =      3.70133  eV     1   --> A              
     e( 16 - 16) =      4.65886  eV     1   --> A              
     e( 17 - 17) =      5.28854  eV     1   --> A              
     e( 18 - 18) =      6.65907  eV     1   --> A              
     e( 19 - 19) =      6.68351  eV     1   --> A              
     e( 20 - 20) =      8.33831  eV     1   --> A              
     e( 21 - 21) =      8.56115  eV     1   --> A              
     e( 22 - 22) =      8.64527  eV     1   --> A              
     e( 23 - 23) =      9.25599  eV     1   --> A              
     e( 24 - 24) =      9.96742  eV     1   --> A              
     e( 25 - 25) =     10.00752  eV     1   --> A              
     e( 26 - 26) =     11.18206  eV     1   --> A              
     e( 27 - 27) =     11.25263  eV     1   --> A              
     e( 28 - 28) =     12.14591  eV     1   --> A              
     e( 29 - 29) =     12.19976  eV     1   --> A              
     e( 30 - 30) =     13.13769  eV     1   --> A              
     e( 31 - 31) =     14.66680  eV     1   --> A              
     e( 32 - 32) =     15.57203  eV     1   --> A              
     e( 33 - 33) =     15.66520  eV     1   --> A              
     e( 34 - 34) =     15.87890  eV     1   --> A              
     e( 35 - 35) =     16.05059  eV     1   --> A              
     e( 36 - 36) =     16.49940  eV     1   --> A              
     e( 37 - 37) =     16.52870  eV     1   --> A              
     e( 38 - 38) =     17.71670  eV     1   --> A              
     e( 39 - 39) =     19.00790  eV     1   --> A              
     e( 40 - 40) =     19.27275  eV     1   --> A              

 **************************************************************************

 **************************************************************************

                    xk=(   0.03850,   0.02218,   0.00000  )

     Band symmetry, C_1 (1)     point group:

     e(  1 -  1) =    -22.41630  eV     1   --> A              
     e(  2 -  2) =    -22.35238  eV     1   --> A              
     e(  3 -  3) =     -9.32969  eV     1   --> A              
     e(  4 -  4) =     -7.22846  eV     1   --> A              
     e(  5 -  5) =     -6.45944  eV     1   --> A              
     e(  6 -  6) =     -6.43539  eV     1   --> A              
     e(  7 -  7) =     -6.39870  eV     1   --> A              
     e(  8 -  8) =     -6.37774  eV     1   --> A              
     e(  9 -  9) =     -4.21186  eV     1   --> A              
     e( 10 - 10) =     -0.10272  eV     1   --> A              
     e( 11 - 11) =      2.02332  eV     1   --> A              
     e( 12 - 12) =      2.81648  eV     1   --> A              
     e( 13 - 13) =      2.84822  eV     1   --> A              
     e( 14 - 14) =      3.46218  eV     1   --> A              
     e( 15 - 15) =      3.72313  eV     1   --> A              
     e( 16 - 16) =      4.68466  eV     1   --> A              
     e( 17 - 17) =      5.30451  eV     1   --> A              
     e( 18 - 18) =      6.67075  eV     1   --> A              
     e( 19 - 19) =      6.70165  eV     1   --> A              
     e( 20 - 20) =      8.32275  eV     1   --> A              
     e( 21 - 21) =      8.36404  eV     1   --> A              
     e( 22 - 22) =      8.63100  eV     1   --> A              
     e( 23 - 23) =      9.30577  eV     1   --> A              
     e( 24 - 24) =      9.86620  eV     1   --> A              
     e( 25 - 25) =     10.03717  eV     1   --> A              
     e( 26 - 26) =     11.27790  eV     1   --> A              
     e( 27 - 27) =     11.29485  eV     1   --> A              
     e( 28 - 28) =     11.99100  eV     1   --> A              
     e( 29 - 29) =     12.18313  eV     1   --> A              
     e( 30 - 30) =     13.22228  eV     1   --> A              
     e( 31 - 31) =     14.69487  eV     1   --> A              
     e( 32 - 32) =     15.45135  eV     1   --> A              
     e( 33 - 33) =     15.72804  eV     1   --> A              
     e( 34 - 34) =     16.07230  eV     1   --> A              
     e( 35 - 35) =     16.08835  eV     1   --> A              
     e( 36 - 36) =     16.43299  eV     1   --> A              
     e( 37 - 37) =     16.52448  eV     1   --> A              
     e( 38 - 38) =     17.81178  eV     1   --> A              
     e( 39 - 39) =     19.07788  eV     1   --> A              
     e( 40 - 40) =     19.22563  eV     1   --> A              

 **************************************************************************

 **************************************************************************

                    xk=(   0.05775,   0.03327,   0.00000  )

     Band symmetry, C_1 (1)     point group:

     e(  1 -  1) =    -22.40190  eV     1   --> A              
     e(  2 -  2) =    -22.33850  eV     1   --> A              
     e(  3 -  3) =     -9.30594  eV     1   --> A              
     e(  4 -  4) =     -7.21284  eV     1   --> A              
     e(  5 -  5) =     -6.54748  eV     1   --> A              
     e(  6 -  6) =     -6.52085  eV     1   --> A              
     e(  7 -  7) =     -6.41235  eV     1   --> A              
     e(  8 -  8) =     -6.39101  eV     1   --> A              
     e(  9 -  9) =     -4.16654  eV     1   --> A              
     e( 10 - 10) =     -0.01152  eV     1   --> A              
     e( 11 - 11) =      2.07542  eV     1   --> A              
     e( 12 - 12) =      2.85493  eV     1   --> A              
     e( 13 - 13) =      2.89314  eV     1   --> A              
     e( 14 - 14) =      3.51286  eV     1   --> A              
     e( 15 - 15) =      3.75928  eV     1   --> A              
     e( 16 - 16) =      4.72734  eV     1   --> A              
     e( 17 - 17) =      5.33082  eV     1   --> A              
     e( 18 - 18) =      6.69045  eV     1   --> A              
     e( 19 - 19) =      6.72907  eV     1   --> A              
     e( 20 - 20) =      8.00838  eV     1   --> A              
     e( 21 - 21) =      8.40672  eV     1   --> A              
     e( 22 - 22) =      8.60085  eV     1   --> A              
     e( 23 - 23) =      9.35553  eV     1   --> A              
     e( 24 - 24) =      9.70818  eV     1   --> A              
     e( 25 - 25) =     10.08868  eV     1   --> A              
     e( 26 - 26) =     11.31917  eV     1   --> A              
     e( 27 - 27) =     11.37536  eV     1   --> A              
     e( 28 - 28) =     11.85166  eV     1   --> A              
     e( 29 - 29) =     12.15832  eV     1   --> A              
     e( 30 - 30) =     13.33562  eV     1   --> A              
     e( 31 - 31) =     14.73108  eV     1   --> A              
     e( 32 - 32) =     15.32679  eV     1   --> A              
     e( 33 - 33) =     15.79558  eV     1   --> A              
     e( 34 - 34) =     16.04997  eV     1   --> A              
     e( 35 - 35) =     16.31945  eV     1   --> A              
     e( 36 - 36) =     16.34643  eV     1   --> A              
     e( 37 - 37) =     16.63339  eV     1   --> A              
     e( 38 - 38) =     17.96543  eV     1   --> A              
     e( 39 - 39) =     19.16152  eV     1   --> A              
     e( 40 - 40) =     19.16623  eV     1   --> A              

 **************************************************************************

 **************************************************************************

                    xk=(   0.07700,   0.04436,   0.00000  )

     Band symmetry, C_1 (1)     point group:

     e(  1 -  1) =    -22.38194  eV     1   --> A              
     e(  2 -  2) =    -22.31927  eV     1   --> A              
     e(  3 -  3) =     -9.27346  eV     1   --> A              
     e(  4 -  4) =     -7.19246  eV     1   --> A              
     e(  5 -  5) =     -6.66177  eV     1   --> A              
     e(  6 -  6) =     -6.63357  eV     1   --> A              
     e(  7 -  7) =     -6.43156  eV     1   --> A              
     e(  8 -  8) =     -6.40965  eV     1   --> A              
     e(  9 -  9) =     -4.10899  eV     1   --> A              
     e( 10 - 10) =      0.11070  eV     1   --> A              
     e( 11 - 11) =      2.14611  eV     1   --> A              
     e( 12 - 12) =      2.90833  eV     1   --> A              
     e( 13 - 13) =      2.95570  eV     1   --> A              
     e( 14 - 14) =      3.58319  eV     1   --> A              
     e( 15 - 15) =      3.80953  eV     1   --> A              
     e( 16 - 16) =      4.78635  eV     1   --> A              
     e( 17 - 17) =      5.36704  eV     1   --> A              
     e( 18 - 18) =      6.71851  eV     1   --> A              
     e( 19 - 19) =      6.75773  eV     1   --> A              
     e( 20 - 20) =      7.66389  eV     1   --> A              
     e( 21 - 21) =      8.46605  eV     1   --> A              
     e( 22 - 22) =      8.54377  eV     1   --> A              
     e( 23 - 23) =      9.40531  eV     1   --> A              
     e( 24 - 24) =      9.50960  eV     1   --> A              
     e( 25 - 25) =     10.15992  eV     1   --> A              
     e( 26 - 26) =     11.29452  eV     1   --> A              
     e( 27 - 27) =     11.37570  eV     1   --> A              
     e( 28 - 28) =     11.84558  eV     1   --> A              
     e( 29 - 29) =     12.13813  eV     1   --> A              
     e( 30 - 30) =     13.47123  eV     1   --> A              
     e( 31 - 31) =     14.76395  eV     1   --> A              
     e( 32 - 32) =     15.22636  eV     1   --> A              
     e( 33 - 33) =     15.86776  eV     1   --> A              
     e( 34 - 34) =     15.91178  eV     1   --> A              
     e( 35 - 35) =     16.17794  eV     1   --> A              
     e( 36 - 36) =     16.66098  eV     1   --> A              
     e( 37 - 37) =     16.87315  eV     1   --> A              
     e( 38 - 38) =     18.18341  eV     1   --> A              
     e( 39 - 39) =     19.09522  eV     1   --> A              
     e( 40 - 40) =     19.24432  eV     1   --> A              

 **************************************************************************

 **************************************************************************

                    xk=(   0.09625,   0.05545,   0.00000  )

     Band symmetry, C_1 (1)     point group:

     e(  1 -  1) =    -22.35664  eV     1   --> A              
     e(  2 -  2) =    -22.29490  eV     1   --> A              
     e(  3 -  3) =     -9.23311  eV     1   --> A              
     e(  4 -  4) =     -7.17054  eV     1   --> A              
     e(  5 -  5) =     -6.79560  eV     1   --> A              
     e(  6 -  6) =     -6.76567  eV     1   --> A              
     e(  7 -  7) =     -6.45659  eV     1   --> A              
     e(  8 -  8) =     -6.43389  eV     1   --> A              
     e(  9 -  9) =     -4.04288  eV     1   --> A              
     e( 10 - 10) =      0.25954  eV     1   --> A              
     e( 11 - 11) =      2.23353  eV     1   --> A              
     e( 12 - 12) =      2.97624  eV     1   --> A              
     e( 13 - 13) =      3.03558  eV     1   --> A              
     e( 14 - 14) =      3.67236  eV     1   --> A              
     e( 15 - 15) =      3.87352  eV     1   --> A              
     e( 16 - 16) =      4.86048  eV     1   --> A              
     e( 17 - 17) =      5.41260  eV     1   --> A              
     e( 18 - 18) =      6.75541  eV     1   --> A              
     e( 19 - 19) =      6.75721  eV     1   --> A              
     e( 20 - 20) =      7.34124  eV     1   --> A              
     e( 21 - 21) =      8.44764  eV     1   --> A              
     e( 22 - 22) =      8.54145  eV     1   --> A              
     e( 23 - 23) =      9.28559  eV     1   --> A              
     e( 24 - 24) =      9.45990  eV     1   --> A              
     e( 25 - 25) =     10.24943  eV     1   --> A              
     e( 26 - 26) =     11.12316  eV     1   --> A              
     e( 27 - 27) =     11.44698  eV     1   --> A              
     e( 28 - 28) =     11.85763  eV     1   --> A              
     e( 29 - 29) =     12.17317  eV     1   --> A              
     e( 30 - 30) =     13.62410  eV     1   --> A              
     e( 31 - 31) =     14.78078  eV     1   --> A              
     e( 32 - 32) =     15.17203  eV     1   --> A              
     e( 33 - 33) =     15.70308  eV     1   --> A              
     e( 34 - 34) =     15.94943  eV     1   --> A              
     e( 35 - 35) =     16.04142  eV     1   --> A              
     e( 36 - 36) =     16.97474  eV     1   --> A              
     e( 37 - 37) =     17.19720  eV     1   --> A              
     e( 38 - 38) =     18.47759  eV     1   --> A              
     e( 39 - 39) =     19.03661  eV     1   --> A              
     e( 40 - 40) =     19.28719  eV     1   --> A              

 **************************************************************************

 **************************************************************************

                    xk=(   0.11550,   0.06654,   0.00000  )

     Band symmetry, C_1 (1)     point group:

     e(  1 -  1) =    -22.32624  eV     1   --> A              
     e(  2 -  2) =    -22.26562  eV     1   --> A              
     e(  3 -  3) =     -9.18620  eV     1   --> A              
     e(  4 -  4) =     -7.15971  eV     1   --> A              
     e(  5 -  5) =     -6.94215  eV     1   --> A              
     e(  6 -  6) =     -6.89980  eV     1   --> A              
     e(  7 -  7) =     -6.48770  eV     1   --> A              
     e(  8 -  8) =     -6.46391  eV     1   --> A              
     e(  9 -  9) =     -3.97125  eV     1   --> A              
     e( 10 - 10) =      0.43039  eV     1   --> A              
     e( 11 - 11) =      2.33573  eV     1   --> A              
     e( 12 - 12) =      3.05802  eV     1   --> A              
     e( 13 - 13) =      3.13238  eV     1   --> A              
     e( 14 - 14) =      3.77905  eV     1   --> A              
     e( 15 - 15) =      3.95083  eV     1   --> A              
     e( 16 - 16) =      4.94721  eV     1   --> A              
     e( 17 - 17) =      5.46689  eV     1   --> A              
     e( 18 - 18) =      6.62500  eV     1   --> A              
     e( 19 - 19) =      6.80172  eV     1   --> A              
     e( 20 - 20) =      7.15636  eV     1   --> A              
     e( 21 - 21) =      8.30463  eV     1   --> A              
     e( 22 - 22) =      8.63120  eV     1   --> A              
     e( 23 - 23) =      9.05050  eV     1   --> A              
     e( 24 - 24) =      9.52293  eV     1   --> A              
     e( 25 - 25) =     10.35518  eV     1   --> A              
     e( 26 - 26) =     10.95536  eV     1   --> A              
     e( 27 - 27) =     11.53262  eV     1   --> A              
     e( 28 - 28) =     11.79919  eV     1   --> A              
     e( 29 - 29) =     12.27336  eV     1   --> A              
     e( 30 - 30) =     13.78438  eV     1   --> A              
     e( 31 - 31) =     14.76704  eV     1   --> A              
     e( 32 - 32) =     15.17391  eV     1   --> A              
     e( 33 - 33) =     15.44042  eV     1   --> A              
     e( 34 - 34) =     15.94288  eV     1   --> A              
     e( 35 - 35) =     16.04355  eV     1   --> A              
     e( 36 - 36) =     17.26411  eV     1   --> A              
     e( 37 - 37) =     17.57473  eV     1   --> A              
     e( 38 - 38) =     18.84996  eV     1   --> A              
     e( 39 - 39) =     18.98751  eV     1   --> A              
     e( 40 - 40) =     19.26928  eV     1   --> A              

 **************************************************************************

 **************************************************************************

                    xk=(   0.13475,   0.07763,   0.00000  )

     Band symmetry, C_1 (1)     point group:

     e(  1 -  1) =    -22.29108  eV     1   --> A              
     e(  2 -  2) =    -22.23176  eV     1   --> A              
     e(  3 -  3) =     -9.13466  eV     1   --> A              
     e(  4 -  4) =     -7.21100  eV     1   --> A              
     e(  5 -  5) =     -7.09469  eV     1   --> A              
     e(  6 -  6) =     -6.98024  eV     1   --> A              
     e(  7 -  7) =     -6.52517  eV     1   --> A              
     e(  8 -  8) =     -6.49996  eV     1   --> A              
     e(  9 -  9) =     -3.89629  eV     1   --> A              
     e( 10 - 10) =      0.61888  eV     1   --> A              
     e( 11 - 11) =      2.45077  eV     1   --> A              
     e( 12 - 12) =      3.15278  eV     1   --> A              
     e( 13 - 13) =      3.24565  eV     1   --> A              
     e( 14 - 14) =      3.90105  eV     1   --> A              
     e( 15 - 15) =      4.04096  eV     1   --> A              
     e( 16 - 16) =      5.04034  eV     1   --> A              
     e( 17 - 17) =      5.52933  eV     1   --> A              
     e( 18 - 18) =      6.33359  eV     1   --> A              
     e( 19 - 19) =      6.85795  eV     1   --> A              
     e( 20 - 20) =      7.14647  eV     1   --> A              
     e( 21 - 21) =      8.11879  eV     1   --> A              
     e( 22 - 22) =      8.71434  eV     1   --> A              
     e( 23 - 23) =      8.83579  eV     1   --> A              
     e( 24 - 24) =      9.59495  eV     1   --> A              
     e( 25 - 25) =     10.47437  eV     1   --> A              
     e( 26 - 26) =     10.80744  eV     1   --> A              
     e( 27 - 27) =     11.63216  eV     1   --> A              
     e( 28 - 28) =     11.72159  eV     1   --> A              
     e( 29 - 29) =     12.39021  eV     1   --> A              
     e( 30 - 30) =     13.94237  eV     1   --> A              
     e( 31 - 31) =     14.70563  eV     1   --> A              
     e( 32 - 32) =     15.14740  eV     1   --> A              
     e( 33 - 33) =     15.22642  eV     1   --> A              
     e( 34 - 34) =     15.90079  eV     1   --> A              
     e( 35 - 35) =     16.15173  eV     1   --> A              
     e( 36 - 36) =     17.52731  eV     1   --> A              
     e( 37 - 37) =     17.98452  eV     1   --> A              
     e( 38 - 38) =     18.94001  eV     1   --> A              
     e( 39 - 39) =     19.11703  eV     1   --> A              
     e( 40 - 40) =     19.32465  eV     1   --> A              

 **************************************************************************

 **************************************************************************

                    xk=(   0.15400,   0.08872,   0.00000  )

     Band symmetry, C_1 (1)     point group:

     e(  1 -  1) =    -22.25153  eV     1   --> A              
     e(  2 -  2) =    -22.19367  eV     1   --> A              
     e(  3 -  3) =     -9.08134  eV     1   --> A              
     e(  4 -  4) =     -7.35379  eV     1   --> A              
     e(  5 -  5) =     -7.24626  eV     1   --> A              
     e(  6 -  6) =     -6.97350  eV     1   --> A              
     e(  7 -  7) =     -6.56931  eV     1   --> A              
     e(  8 -  8) =     -6.54221  eV     1   --> A              
     e(  9 -  9) =     -3.81953  eV     1   --> A              
     e( 10 - 10) =      0.82101  eV     1   --> A              
     e( 11 - 11) =      2.57682  eV     1   --> A              
     e( 12 - 12) =      3.25937  eV     1   --> A              
     e( 13 - 13) =      3.37484  eV     1   --> A              
     e( 14 - 14) =      4.03434  eV     1   --> A              
     e( 15 - 15) =      4.14344  eV     1   --> A              
     e( 16 - 16) =      5.12159  eV     1   --> A              
     e( 17 - 17) =      5.59953  eV     1   --> A              
     e( 18 - 18) =      6.01802  eV     1   --> A              
     e( 19 - 19) =      6.92432  eV     1   --> A              
     e( 20 - 20) =      7.18596  eV     1   --> A              
     e( 21 - 21) =      7.91487  eV     1   --> A              
     e( 22 - 22) =      8.55991  eV     1   --> A              
     e( 23 - 23) =      8.88121  eV     1   --> A              
     e( 24 - 24) =      9.67131  eV     1   --> A              
     e( 25 - 25) =     10.60315  eV     1   --> A              
     e( 26 - 26) =     10.66843  eV     1   --> A              
     e( 27 - 27) =     11.67188  eV     1   --> A              
     e( 28 - 28) =     11.74506  eV     1   --> A              
     e( 29 - 29) =     12.50570  eV     1   --> A              
     e( 30 - 30) =     14.09492  eV     1   --> A              
     e( 31 - 31) =     14.56120  eV     1   --> A              
     e( 32 - 32) =     14.87713  eV     1   --> A              
     e( 33 - 33) =     15.30997  eV     1   --> A              
     e( 34 - 34) =     15.91789  eV     1   --> A              
     e( 35 - 35) =     16.27484  eV     1   --> A              
     e( 36 - 36) =     17.77133  eV     1   --> A              
     e( 37 - 37) =     18.40521  eV     1   --> A              
     e( 38 - 38) =     18.87290  eV     1   --> A              
     e( 39 - 39) =     18.88925  eV     1   --> A              
     e( 40 - 40) =     19.37835  eV     1   --> A              

 **************************************************************************

 **************************************************************************

                    xk=(   0.17325,   0.09981,   0.00000  )

     Band symmetry, C_1 (1)     point group:

     e(  1 -  1) =    -22.20803  eV     1   --> A              
     e(  2 -  2) =    -22.15179  eV     1   --> A              
     e(  3 -  3) =     -9.03042  eV     1   --> A              
     e(  4 -  4) =     -7.53107  eV     1   --> A              
     e(  5 -  5) =     -7.38921  eV     1   --> A              
     e(  6 -  6) =     -6.93296  eV     1   --> A              
     e(  7 -  7) =     -6.62040  eV     1   --> A              
     e(  8 -  8) =     -6.59081  eV     1   --> A              
     e(  9 -  9) =     -3.74195  eV     1   --> A              
     e( 10 - 10) =      1.03325  eV     1   --> A              
     e( 11 - 11) =      2.71201  eV     1   --> A              
     e( 12 - 12) =      3.37628  eV     1   --> A              
     e( 13 - 13) =      3.51926  eV     1   --> A              
     e( 14 - 14) =      4.16990  eV     1   --> A              
     e( 15 - 15) =      4.25787  eV     1   --> A              
     e( 16 - 16) =      5.13274  eV     1   --> A              
     e( 17 - 17) =      5.67744  eV     1   --> A              
     e( 18 - 18) =      5.79156  eV     1   --> A              
     e( 19 - 19) =      7.00014  eV     1   --> A              
     e( 20 - 20) =      7.17759  eV     1   --> A              
     e( 21 - 21) =      7.75995  eV     1   --> A              
     e( 22 - 22) =      8.34631  eV     1   --> A              
     e( 23 - 23) =      9.01639  eV     1   --> A              
     e( 24 - 24) =      9.73696  eV     1   --> A              
     e( 25 - 25) =     10.53413  eV     1   --> A              
     e( 26 - 26) =     10.73636  eV     1   --> A              
     e( 27 - 27) =     11.67757  eV     1   --> A              
     e( 28 - 28) =     11.87071  eV     1   --> A              
     e( 29 - 29) =     12.61762  eV     1   --> A              
     e( 30 - 30) =     14.24531  eV     1   --> A              
     e( 31 - 31) =     14.28455  eV     1   --> A              
     e( 32 - 32) =     14.70473  eV     1   --> A              
     e( 33 - 33) =     15.39905  eV     1   --> A              
     e( 34 - 34) =     15.98544  eV     1   --> A              
     e( 35 - 35) =     16.41271  eV     1   --> A              
     e( 36 - 36) =     17.98075  eV     1   --> A              
     e( 37 - 37) =     18.57022  eV     1   --> A              
     e( 38 - 38) =     18.69379  eV     1   --> A              
     e( 39 - 39) =     18.81943  eV     1   --> A              
     e( 40 - 40) =     18.88494  eV     1   --> A              

 **************************************************************************

 **************************************************************************

                    xk=(   0.19250,   0.11090,   0.00000  )

     Band symmetry, C_1 (1)     point group:

     e(  1 -  1) =    -22.16105  eV     1   --> A              
     e(  2 -  2) =    -22.10658  eV     1   --> A              
     e(  3 -  3) =     -8.98786  eV     1   --> A              
     e(  4 -  4) =     -7.71772  eV     1   --> A              
     e(  5 -  5) =     -7.51472  eV     1   --> A              
     e(  6 -  6) =     -6.88092  eV     1   --> A              
     e(  7 -  7) =     -6.67871  eV     1   --> A              
     e(  8 -  8) =     -6.64563  eV     1   --> A              
     e(  9 -  9) =     -3.66412  eV     1   --> A              
     e( 10 - 10) =      1.25248  eV     1   --> A              
     e( 11 - 11) =      2.85405  eV     1   --> A              
     e( 12 - 12) =      3.50160  eV     1   --> A              
     e( 13 - 13) =      3.67753  eV     1   --> A              
     e( 14 - 14) =      4.28013  eV     1   --> A              
     e( 15 - 15) =      4.38413  eV     1   --> A              
     e( 16 - 16) =      5.00826  eV     1   --> A              
     e( 17 - 17) =      5.75982  eV     1   --> A              
     e( 18 - 18) =      5.76345  eV     1   --> A              
     e( 19 - 19) =      7.03298  eV     1   --> A              
     e( 20 - 20) =      7.08252  eV     1   --> A              
     e( 21 - 21) =      7.74632  eV     1   --> A              
     e( 22 - 22) =      8.15340  eV     1   --> A              
     e( 23 - 23) =      9.17018  eV     1   --> A              
     e( 24 - 24) =      9.75500  eV     1   --> A              
     e( 25 - 25) =     10.43610  eV     1   --> A              
     e( 26 - 26) =     10.86742  eV     1   --> A              
     e( 27 - 27) =     11.74463  eV     1   --> A              
     e( 28 - 28) =     12.00857  eV     1   --> A              
     e( 29 - 29) =     12.72660  eV     1   --> A              
     e( 30 - 30) =     13.93102  eV     1   --> A              
     e( 31 - 31) =     14.39873  eV     1   --> A              
     e( 32 - 32) =     14.60111  eV     1   --> A              
     e( 33 - 33) =     15.47122  eV     1   --> A              
     e( 34 - 34) =     16.09108  eV     1   --> A              
     e( 35 - 35) =     16.56321  eV     1   --> A              
     e( 36 - 36) =     17.94309  eV     1   --> A              
     e( 37 - 37) =     18.31366  eV     1   --> A              
     e( 38 - 38) =     18.38831  eV     1   --> A              
     e( 39 - 39) =     18.43787  eV     1   --> A              
     e( 40 - 40) =     18.53808  eV     1   --> A              

 **************************************************************************

 **************************************************************************

                    xk=(   0.21175,   0.12199,   0.00000  )

     Band symmetry, C_1 (1)     point group:

     e(  1 -  1) =    -22.11116  eV     1   --> A              
     e(  2 -  2) =    -22.05856  eV     1   --> A              
     e(  3 -  3) =     -8.96133  eV     1   --> A              
     e(  4 -  4) =     -7.90553  eV     1   --> A              
     e(  5 -  5) =     -7.61275  eV     1   --> A              
     e(  6 -  6) =     -6.82466  eV     1   --> A              
     e(  7 -  7) =     -6.74448  eV     1   --> A              
     e(  8 -  8) =     -6.70503  eV     1   --> A              
     e(  9 -  9) =     -3.58637  eV     1   --> A              
     e( 10 - 10) =      1.47592  eV     1   --> A              
     e( 11 - 11) =      2.99930  eV     1   --> A              
     e( 12 - 12) =      3.63306  eV     1   --> A              
     e( 13 - 13) =      3.84437  eV     1   --> A              
     e( 14 - 14) =      4.27866  eV     1   --> A              
     e( 15 - 15) =      4.52252  eV     1   --> A              
     e( 16 - 16) =      4.90073  eV     1   --> A              
     e( 17 - 17) =      5.85842  eV     1   --> A              
     e( 18 - 18) =      5.86453  eV     1   --> A              
     e( 19 - 19) =      6.79111  eV     1   --> A              
     e( 20 - 20) =      7.16346  eV     1   --> A              
     e( 21 - 21) =      7.84615  eV     1   --> A              
     e( 22 - 22) =      7.99675  eV     1   --> A              
     e( 23 - 23) =      9.33963  eV     1   --> A              
     e( 24 - 24) =      9.67719  eV     1   --> A              
     e( 25 - 25) =     10.42947  eV     1   --> A              
     e( 26 - 26) =     10.98838  eV     1   --> A              
     e( 27 - 27) =     11.86439  eV     1   --> A              
     e( 28 - 28) =     12.15823  eV     1   --> A              
     e( 29 - 29) =     12.83294  eV     1   --> A              
     e( 30 - 30) =     13.55427  eV     1   --> A              
     e( 31 - 31) =     14.53396  eV     1   --> A              
     e( 32 - 32) =     14.55896  eV     1   --> A              
     e( 33 - 33) =     15.51107  eV     1   --> A              
     e( 34 - 34) =     16.22277  eV     1   --> A              
     e( 35 - 35) =     16.71948  eV     1   --> A              
     e( 36 - 36) =     17.54991  eV     1   --> A              
     e( 37 - 37) =     17.80280  eV     1   --> A              
     e( 38 - 38) =     17.99309  eV     1   --> A              
     e( 39 - 39) =     18.02970  eV     1   --> A              
     e( 40 - 40) =     18.30180  eV     1   --> A              

 **************************************************************************

 **************************************************************************

                    xk=(   0.23100,   0.13308,   0.00000  )

     Band symmetry, C_1 (1)     point group:

     e(  1 -  1) =    -22.05892  eV     1   --> A              
     e(  2 -  2) =    -22.00831  eV     1   --> A              
     e(  3 -  3) =     -8.95880  eV     1   --> A              
     e(  4 -  4) =     -8.09009  eV     1   --> A              
     e(  5 -  5) =     -7.67344  eV     1   --> A              
     e(  6 -  6) =     -6.81788  eV     1   --> A              
     e(  7 -  7) =     -6.79828  eV     1   --> A              
     e(  8 -  8) =     -6.73726  eV     1   --> A              
     e(  9 -  9) =     -3.50880  eV     1   --> A              
     e( 10 - 10) =      1.70093  eV     1   --> A              
     e( 11 - 11) =      3.13927  eV     1   --> A              
     e( 12 - 12) =      3.76820  eV     1   --> A              
     e( 13 - 13) =      3.95576  eV     1   --> A              
     e( 14 - 14) =      4.16211  eV     1   --> A              
     e( 15 - 15) =      4.67389  eV     1   --> A              
     e( 16 - 16) =      4.96717  eV     1   --> A              
     e( 17 - 17) =      5.96338  eV     1   --> A              
     e( 18 - 18) =      6.01119  eV     1   --> A              
     e( 19 - 19) =      6.53400  eV     1   --> A              
     e( 20 - 20) =      7.22470  eV     1   --> A              
     e( 21 - 21) =      7.89901  eV     1   --> A              
     e( 22 - 22) =      7.99782  eV     1   --> A              
     e( 23 - 23) =      9.51258  eV     1   --> A              
     e( 24 - 24) =      9.52384  eV     1   --> A              
     e( 25 - 25) =     10.51522  eV     1   --> A              
     e( 26 - 26) =     11.09046  eV     1   --> A              
     e( 27 - 27) =     12.02432  eV     1   --> A              
     e( 28 - 28) =     12.31841  eV     1   --> A              
     e( 29 - 29) =     12.93606  eV     1   --> A              
     e( 30 - 30) =     13.17423  eV     1   --> A              
     e( 31 - 31) =     14.49944  eV     1   --> A              
     e( 32 - 32) =     14.72697  eV     1   --> A              
     e( 33 - 33) =     15.50960  eV     1   --> A              
     e( 34 - 34) =     16.36362  eV     1   --> A              
     e( 35 - 35) =     16.83980  eV     1   --> A              
     e( 36 - 36) =     17.12018  eV     1   --> A              
     e( 37 - 37) =     17.32362  eV     1   --> A              
     e( 38 - 38) =     17.53049  eV     1   --> A              
     e( 39 - 39) =     17.55938  eV     1   --> A              
     e( 40 - 40) =     17.75909  eV     1   --> A              

 **************************************************************************

 **************************************************************************

                    xk=(   0.25025,   0.14417,   0.00000  )

     Band symmetry, C_1 (1)     point group:

     e(  1 -  1) =    -22.00497  eV     1   --> A              
     e(  2 -  2) =    -21.95642  eV     1   --> A              
     e(  3 -  3) =     -8.98488  eV     1   --> A              
     e(  4 -  4) =     -8.26824  eV     1   --> A              
     e(  5 -  5) =     -7.69068  eV     1   --> A              
     e(  6 -  6) =     -6.89901  eV     1   --> A              
     e(  7 -  7) =     -6.86268  eV     1   --> A              
     e(  8 -  8) =     -6.68288  eV     1   --> A              
     e(  9 -  9) =     -3.43139  eV     1   --> A              
     e( 10 - 10) =      1.92484  eV     1   --> A              
     e( 11 - 11) =      3.24312  eV     1   --> A              
     e( 12 - 12) =      3.78318  eV     1   --> A              
     e( 13 - 13) =      3.90485  eV     1   --> A              
     e( 14 - 14) =      4.28989  eV     1   --> A              
     e( 15 - 15) =      4.83968  eV     1   --> A              
     e( 16 - 16) =      5.13079  eV     1   --> A              
     e( 17 - 17) =      6.07633  eV     1   --> A              
     e( 18 - 18) =      6.07887  eV     1   --> A              
     e( 19 - 19) =      6.38986  eV     1   --> A              
     e( 20 - 20) =      7.24095  eV     1   --> A              
     e( 21 - 21) =      7.88899  eV     1   --> A              
     e( 22 - 22) =      8.17770  eV     1   --> A              
     e( 23 - 23) =      9.30847  eV     1   --> A              
     e( 24 - 24) =      9.72199  eV     1   --> A              
     e( 25 - 25) =     10.65475  eV     1   --> A              
     e( 26 - 26) =     11.16548  eV     1   --> A              
     e( 27 - 27) =     12.21291  eV     1   --> A              
     e( 28 - 28) =     12.47398  eV     1   --> A              
     e( 29 - 29) =     12.81593  eV     1   --> A              
     e( 30 - 30) =     13.03430  eV     1   --> A              
     e( 31 - 31) =     14.49501  eV     1   --> A              
     e( 32 - 32) =     14.89895  eV     1   --> A              
     e( 33 - 33) =     15.46448  eV     1   --> A              
     e( 34 - 34) =     16.44623  eV     1   --> A              
     e( 35 - 35) =     16.55220  eV     1   --> A              
     e( 36 - 36) =     16.94046  eV     1   --> A              
     e( 37 - 37) =     16.97918  eV     1   --> A              
     e( 38 - 38) =     17.07373  eV     1   --> A              
     e( 39 - 39) =     17.13136  eV     1   --> A              
     e( 40 - 40) =     17.24746  eV     1   --> A              

 **************************************************************************

 **************************************************************************

                    xk=(   0.26950,   0.15526,   0.00000  )

     Band symmetry, C_1 (1)     point group:

     e(  1 -  1) =    -21.94998  eV     1   --> A              
     e(  2 -  2) =    -21.90355  eV     1   --> A              
     e(  3 -  3) =     -9.03768  eV     1   --> A              
     e(  4 -  4) =     -8.43738  eV     1   --> A              
     e(  5 -  5) =     -7.66532  eV     1   --> A              
     e(  6 -  6) =     -6.98785  eV     1   --> A              
     e(  7 -  7) =     -6.94477  eV     1   --> A              
     e(  8 -  8) =     -6.61596  eV     1   --> A              
     e(  9 -  9) =     -3.35391  eV     1   --> A              
     e( 10 - 10) =      2.14478  eV     1   --> A              
     e( 11 - 11) =      3.18857  eV     1   --> A              
     e( 12 - 12) =      3.67348  eV     1   --> A              
     e( 13 - 13) =      4.04183  eV     1   --> A              
     e( 14 - 14) =      4.50155  eV     1   --> A              
     e( 15 - 15) =      5.02163  eV     1   --> A              
     e( 16 - 16) =      5.32451  eV     1   --> A              
     e( 17 - 17) =      5.90791  eV     1   --> A              
     e( 18 - 18) =      6.20366  eV     1   --> A              
     e( 19 - 19) =      6.52466  eV     1   --> A              
     e( 20 - 20) =      7.21262  eV     1   --> A              
     e( 21 - 21) =      7.97020  eV     1   --> A              
     e( 22 - 22) =      8.37599  eV     1   --> A              
     e( 23 - 23) =      9.09656  eV     1   --> A              
     e( 24 - 24) =      9.93276  eV     1   --> A              
     e( 25 - 25) =     10.82392  eV     1   --> A              
     e( 26 - 26) =     11.20748  eV     1   --> A              
     e( 27 - 27) =     12.36654  eV     1   --> A              
     e( 28 - 28) =     12.42018  eV     1   --> A              
     e( 29 - 29) =     12.74556  eV     1   --> A              
     e( 30 - 30) =     13.12466  eV     1   --> A              
     e( 31 - 31) =     14.50992  eV     1   --> A              
     e( 32 - 32) =     15.05148  eV     1   --> A              
     e( 33 - 33) =     15.39541  eV     1   --> A              
     e( 34 - 34) =     16.08719  eV     1   --> A              
     e( 35 - 35) =     16.23888  eV     1   --> A              
     e( 36 - 36) =     16.55943  eV     1   --> A              
     e( 37 - 37) =     16.58061  eV     1   --> A              
     e( 38 - 38) =     16.69000  eV     1   --> A              
     e( 39 - 39) =     16.88054  eV     1   --> A              
     e( 40 - 40) =     17.04697  eV     1   --> A              

 **************************************************************************

 **************************************************************************

                    xk=(   0.28875,   0.16635,   0.00000  )

     Band symmetry, C_1 (1)     point group:

     e(  1 -  1) =    -21.89464  eV     1   --> A              
     e(  2 -  2) =    -21.85035  eV     1   --> A              
     e(  3 -  3) =     -9.10956  eV     1   --> A              
     e(  4 -  4) =     -8.59535  eV     1   --> A              
     e(  5 -  5) =     -7.60432  eV     1   --> A              
     e(  6 -  6) =     -7.08426  eV     1   --> A              
     e(  7 -  7) =     -7.03503  eV     1   --> A              
     e(  8 -  8) =     -6.54700  eV     1   --> A              
     e(  9 -  9) =     -3.27602  eV     1   --> A              
     e( 10 - 10) =      2.35758  eV     1   --> A              
     e( 11 - 11) =      2.93733  eV     1   --> A              
     e( 12 - 12) =      3.74004  eV     1   --> A              
     e( 13 - 13) =      4.17973  eV     1   --> A              
     e( 14 - 14) =      4.73285  eV     1   --> A              
     e( 15 - 15) =      5.22120  eV     1   --> A              
     e( 16 - 16) =      5.48077  eV     1   --> A              
     e( 17 - 17) =      5.76053  eV     1   --> A              
     e( 18 - 18) =      6.33238  eV     1   --> A              
     e( 19 - 19) =      6.74560  eV     1   --> A              
     e( 20 - 20) =      7.17388  eV     1   --> A              
     e( 21 - 21) =      8.11490  eV     1   --> A              
     e( 22 - 22) =      8.57666  eV     1   --> A              
     e( 23 - 23) =      8.90419  eV     1   --> A              
     e( 24 - 24) =     10.15325  eV     1   --> A              
     e( 25 - 25) =     11.01157  eV     1   --> A              
     e( 26 - 26) =     11.21374  eV     1   --> A              
     e( 27 - 27) =     12.02874  eV     1   --> A              
     e( 28 - 28) =     12.63696  eV     1   --> A              
     e( 29 - 29) =     12.93817  eV     1   --> A              
     e( 30 - 30) =     13.20208  eV     1   --> A              
     e( 31 - 31) =     14.51798  eV     1   --> A              
     e( 32 - 32) =     15.06803  eV     1   --> A              
     e( 33 - 33) =     15.41531  eV     1   --> A              
     e( 34 - 34) =     15.63057  eV     1   --> A              
     e( 35 - 35) =     15.88304  eV     1   --> A              
     e( 36 - 36) =     16.09174  eV     1   --> A              
     e( 37 - 37) =     16.10889  eV     1   --> A              
     e( 38 - 38) =     16.18905  eV     1   --> A              
     e( 39 - 39) =     16.74403  eV     1   --> A              
     e( 40 - 40) =     16.75698  eV     1   --> A              

 **************************************************************************

 **************************************************************************

                    xk=(   0.30800,   0.17744,   0.00000  )

     Band symmetry, C_1 (1)     point group:

     e(  1 -  1) =    -21.83965  eV     1   --> A              
     e(  2 -  2) =    -21.79751  eV     1   --> A              
     e(  3 -  3) =     -9.19106  eV     1   --> A              
     e(  4 -  4) =     -8.74022  eV     1   --> A              
     e(  5 -  5) =     -7.51701  eV     1   --> A              
     e(  6 -  6) =     -7.18798  eV     1   --> A              
     e(  7 -  7) =     -7.13237  eV     1   --> A              
     e(  8 -  8) =     -6.47783  eV     1   --> A              
     e(  9 -  9) =     -3.19718  eV     1   --> A              
     e( 10 - 10) =      2.55982  eV     1   --> A              
     e( 11 - 11) =      2.63198  eV     1   --> A              
     e( 12 - 12) =      3.83799  eV     1   --> A              
     e( 13 - 13) =      4.32127  eV     1   --> A              
     e( 14 - 14) =      4.97116  eV     1   --> A              
     e( 15 - 15) =      5.43095  eV     1   --> A              
     e( 16 - 16) =      5.43896  eV     1   --> A              
     e( 17 - 17) =      5.88020  eV     1   --> A              
     e( 18 - 18) =      6.45202  eV     1   --> A              
     e( 19 - 19) =      6.99263  eV     1   --> A              
     e( 20 - 20) =      7.16156  eV     1   --> A              
     e( 21 - 21) =      8.29876  eV     1   --> A              
     e( 22 - 22) =      8.61923  eV     1   --> A              
     e( 23 - 23) =      8.89797  eV     1   --> A              
     e( 24 - 24) =     10.37521  eV     1   --> A              
     e( 25 - 25) =     11.18479  eV     1   --> A              
     e( 26 - 26) =     11.21116  eV     1   --> A              
     e( 27 - 27) =     11.70308  eV     1   --> A              
     e( 28 - 28) =     12.85388  eV     1   --> A              
     e( 29 - 29) =     13.16223  eV     1   --> A              
     e( 30 - 30) =     13.25833  eV     1   --> A              
     e( 31 - 31) =     14.47137  eV     1   --> A              
     e( 32 - 32) =     14.90949  eV     1   --> A              
     e( 33 - 33) =     15.17305  eV     1   --> A              
     e( 34 - 34) =     15.53663  eV     1   --> A              
     e( 35 - 35) =     15.57904  eV     1   --> A              
     e( 36 - 36) =     15.65152  eV     1   --> A              
     e( 37 - 37) =     15.67999  eV     1   --> A              
     e( 38 - 38) =     15.70441  eV     1   --> A              
     e( 39 - 39) =     16.34633  eV     1   --> A              
     e( 40 - 40) =     16.45772  eV     1   --> A              

 **************************************************************************

 **************************************************************************

                    xk=(   0.32725,   0.18854,   0.00000  )

     Band symmetry, C_1 (1)     point group:

     e(  1 -  1) =    -21.78572  eV     1   --> A              
     e(  2 -  2) =    -21.74570  eV     1   --> A              
     e(  3 -  3) =     -9.27384  eV     1   --> A              
     e(  4 -  4) =     -8.87038  eV     1   --> A              
     e(  5 -  5) =     -7.41251  eV     1   --> A              
     e(  6 -  6) =     -7.29799  eV     1   --> A              
     e(  7 -  7) =     -7.23622  eV     1   --> A              
     e(  8 -  8) =     -6.40963  eV     1   --> A              
     e(  9 -  9) =     -3.11663  eV     1   --> A              
     e( 10 - 10) =      2.31971  eV     1   --> A              
     e( 11 - 11) =      2.74809  eV     1   --> A              
     e( 12 - 12) =      3.90151  eV     1   --> A              
     e( 13 - 13) =      4.47090  eV     1   --> A              
     e( 14 - 14) =      5.16192  eV     1   --> A              
     e( 15 - 15) =      5.40561  eV     1   --> A              
     e( 16 - 16) =      5.67387  eV     1   --> A              
     e( 17 - 17) =      6.11941  eV     1   --> A              
     e( 18 - 18) =      6.54191  eV     1   --> A              
     e( 19 - 19) =      7.20770  eV     1   --> A              
     e( 20 - 20) =      7.25680  eV     1   --> A              
     e( 21 - 21) =      8.46229  eV     1   --> A              
     e( 22 - 22) =      8.50858  eV     1   --> A              
     e( 23 - 23) =      9.12323  eV     1   --> A              
     e( 24 - 24) =     10.56743  eV     1   --> A              
     e( 25 - 25) =     11.13095  eV     1   --> A              
     e( 26 - 26) =     11.41686  eV     1   --> A              
     e( 27 - 27) =     11.43072  eV     1   --> A              
     e( 28 - 28) =     13.05996  eV     1   --> A              
     e( 29 - 29) =     13.28166  eV     1   --> A              
     e( 30 - 30) =     13.39899  eV     1   --> A              
     e( 31 - 31) =     14.32289  eV     1   --> A              
     e( 32 - 32) =     14.63665  eV     1   --> A              
     e( 33 - 33) =     14.81470  eV     1   --> A              
     e( 34 - 34) =     15.13515  eV     1   --> A              
     e( 35 - 35) =     15.19130  eV     1   --> A              
     e( 36 - 36) =     15.24484  eV     1   --> A              
     e( 37 - 37) =     15.38151  eV     1   --> A              
     e( 38 - 38) =     15.79955  eV     1   --> A              
     e( 39 - 39) =     15.97322  eV     1   --> A              
     e( 40 - 40) =     16.14254  eV     1   --> A              

 **************************************************************************

 **************************************************************************

                    xk=(   0.34650,   0.19963,   0.00000  )

     Band symmetry, C_1 (1)     point group:

     e(  1 -  1) =    -21.73355  eV     1   --> A              
     e(  2 -  2) =    -21.69560  eV     1   --> A              
     e(  3 -  3) =     -9.35153  eV     1   --> A              
     e(  4 -  4) =     -8.98442  eV     1   --> A              
     e(  5 -  5) =     -7.41824  eV     1   --> A              
     e(  6 -  6) =     -7.34610  eV     1   --> A              
     e(  7 -  7) =     -7.29337  eV     1   --> A              
     e(  8 -  8) =     -6.34340  eV     1   --> A              
     e(  9 -  9) =     -3.03340  eV     1   --> A              
     e( 10 - 10) =      2.01190  eV     1   --> A              
     e( 11 - 11) =      2.91967  eV     1   --> A              
     e( 12 - 12) =      3.89806  eV     1   --> A              
     e( 13 - 13) =      4.63350  eV     1   --> A              
     e( 14 - 14) =      5.21882  eV     1   --> A              
     e( 15 - 15) =      5.60771  eV     1   --> A              
     e( 16 - 16) =      5.92188  eV     1   --> A              
     e( 17 - 17) =      6.38519  eV     1   --> A              
     e( 18 - 18) =      6.59225  eV     1   --> A              
     e( 19 - 19) =      7.32855  eV     1   --> A              
     e( 20 - 20) =      7.53490  eV     1   --> A              
     e( 21 - 21) =      8.30290  eV     1   --> A              
     e( 22 - 22) =      8.73594  eV     1   --> A              
     e( 23 - 23) =      9.38595  eV     1   --> A              
     e( 24 - 24) =     10.61580  eV     1   --> A              
     e( 25 - 25) =     11.10553  eV     1   --> A              
     e( 26 - 26) =     11.28293  eV     1   --> A              
     e( 27 - 27) =     11.62080  eV     1   --> A              
     e( 28 - 28) =     13.22002  eV     1   --> A              
     e( 29 - 29) =     13.28109  eV     1   --> A              
     e( 30 - 30) =     13.62104  eV     1   --> A              
     e( 31 - 31) =     14.10157  eV     1   --> A              
     e( 32 - 32) =     14.25321  eV     1   --> A              
     e( 33 - 33) =     14.53496  eV     1   --> A              
     e( 34 - 34) =     14.70433  eV     1   --> A              
     e( 35 - 35) =     14.76301  eV     1   --> A              
     e( 36 - 36) =     14.88206  eV     1   --> A              
     e( 37 - 37) =     15.10581  eV     1   --> A              
     e( 38 - 38) =     15.60406  eV     1   --> A              
     e( 39 - 39) =     15.82496  eV     1   --> A              
     e( 40 - 40) =     15.88538  eV     1   --> A              

 **************************************************************************

 **************************************************************************

                    xk=(   0.36575,   0.21072,   0.00000  )

     Band symmetry, C_1 (1)     point group:

     e(  1 -  1) =    -21.68382  eV     1   --> A              
     e(  2 -  2) =    -21.64783  eV     1   --> A              
     e(  3 -  3) =     -9.41959  eV     1   --> A              
     e(  4 -  4) =     -9.08108  eV     1   --> A              
     e(  5 -  5) =     -7.54092  eV     1   --> A              
     e(  6 -  6) =     -7.46139  eV     1   --> A              
     e(  7 -  7) =     -7.17239  eV     1   --> A              
     e(  8 -  8) =     -6.28010  eV     1   --> A              
     e(  9 -  9) =     -2.94633  eV     1   --> A              
     e( 10 - 10) =      1.71273  eV     1   --> A              
     e( 11 - 11) =      3.07325  eV     1   --> A              
     e( 12 - 12) =      3.82259  eV     1   --> A              
     e( 13 - 13) =      4.81282  eV     1   --> A              
     e( 14 - 14) =      5.29640  eV     1   --> A              
     e( 15 - 15) =      5.89510  eV     1   --> A              
     e( 16 - 16) =      6.16898  eV     1   --> A              
     e( 17 - 17) =      6.62737  eV     1   --> A              
     e( 18 - 18) =      6.66586  eV     1   --> A              
     e( 19 - 19) =      7.51197  eV     1   --> A              
     e( 20 - 20) =      7.82228  eV     1   --> A              
     e( 21 - 21) =      8.16610  eV     1   --> A              
     e( 22 - 22) =      8.97143  eV     1   --> A              
     e( 23 - 23) =      9.66659  eV     1   --> A              
     e( 24 - 24) =     10.46689  eV     1   --> A              
     e( 25 - 25) =     11.02280  eV     1   --> A              
     e( 26 - 26) =     11.41121  eV     1   --> A              
     e( 27 - 27) =     11.80905  eV     1   --> A              
     e( 28 - 28) =     13.17070  eV     1   --> A              
     e( 29 - 29) =     13.39133  eV     1   --> A              
     e( 30 - 30) =     13.62762  eV     1   --> A              
     e( 31 - 31) =     13.88028  eV     1   --> A              
     e( 32 - 32) =     14.05043  eV     1   --> A              
     e( 33 - 33) =     14.18729  eV     1   --> A              
     e( 34 - 34) =     14.28186  eV     1   --> A              
     e( 35 - 35) =     14.33613  eV     1   --> A              
     e( 36 - 36) =     14.68113  eV     1   --> A              
     e( 37 - 37) =     14.77587  eV     1   --> A              
     e( 38 - 38) =     15.20556  eV     1   --> A              
     e( 39 - 39) =     15.49286  eV     1   --> A              
     e( 40 - 40) =     15.61599  eV     1   --> A              

 **************************************************************************

 **************************************************************************

                    xk=(   0.38500,   0.22181,   0.00000  )

     Band symmetry, C_1 (1)     point group:

     e(  1 -  1) =    -21.63714  eV     1   --> A              
     e(  2 -  2) =    -21.60301  eV     1   --> A              
     e(  3 -  3) =     -9.47469  eV     1   --> A              
     e(  4 -  4) =     -9.15937  eV     1   --> A              
     e(  5 -  5) =     -7.66959  eV     1   --> A              
     e(  6 -  6) =     -7.58145  eV     1   --> A              
     e(  7 -  7) =     -7.04994  eV     1   --> A              
     e(  8 -  8) =     -6.22059  eV     1   --> A              
     e(  9 -  9) =     -2.85414  eV     1   --> A              
     e( 10 - 10) =      1.42438  eV     1   --> A              
     e( 11 - 11) =      3.20939  eV     1   --> A              
     e( 12 - 12) =      3.69656  eV     1   --> A              
     e( 13 - 13) =      5.01027  eV     1   --> A              
     e( 14 - 14) =      5.43121  eV     1   --> A              
     e( 15 - 15) =      6.20942  eV     1   --> A              
     e( 16 - 16) =      6.36218  eV     1   --> A              
     e( 17 - 17) =      6.71768  eV     1   --> A              
     e( 18 - 18) =      6.95705  eV     1   --> A              
     e( 19 - 19) =      7.73608  eV     1   --> A              
     e( 20 - 20) =      8.00813  eV     1   --> A              
     e( 21 - 21) =      8.16787  eV     1   --> A              
     e( 22 - 22) =      9.19593  eV     1   --> A              
     e( 23 - 23) =      9.96177  eV     1   --> A              
     e( 24 - 24) =     10.27738  eV     1   --> A              
     e( 25 - 25) =     10.89053  eV     1   --> A              
     e( 26 - 26) =     11.67365  eV     1   --> A              
     e( 27 - 27) =     11.95411  eV     1   --> A              
     e( 28 - 28) =     13.07293  eV     1   --> A              
     e( 29 - 29) =     13.32606  eV     1   --> A              
     e( 30 - 30) =     13.35546  eV     1   --> A              
     e( 31 - 31) =     13.67384  eV     1   --> A              
     e( 32 - 32) =     13.80584  eV     1   --> A              
     e( 33 - 33) =     13.87160  eV     1   --> A              
     e( 34 - 34) =     13.94484  eV     1   --> A              
     e( 35 - 35) =     14.21565  eV     1   --> A              
     e( 36 - 36) =     14.47830  eV     1   --> A              
     e( 37 - 37) =     14.53543  eV     1   --> A              
     e( 38 - 38) =     14.81196  eV     1   --> A              
     e( 39 - 39) =     15.10232  eV     1   --> A              
     e( 40 - 40) =     15.39181  eV     1   --> A              

 **************************************************************************

 **************************************************************************

                    xk=(   0.40425,   0.23290,   0.00000  )

     Band symmetry, C_1 (1)     point group:

     e(  1 -  1) =    -21.59407  eV     1   --> A              
     e(  2 -  2) =    -21.56165  eV     1   --> A              
     e(  3 -  3) =     -9.51453  eV     1   --> A              
     e(  4 -  4) =     -9.21848  eV     1   --> A              
     e(  5 -  5) =     -7.80288  eV     1   --> A              
     e(  6 -  6) =     -7.70555  eV     1   --> A              
     e(  7 -  7) =     -6.93060  eV     1   --> A              
     e(  8 -  8) =     -6.16563  eV     1   --> A              
     e(  9 -  9) =     -2.75558  eV     1   --> A              
     e( 10 - 10) =      1.14839  eV     1   --> A              
     e( 11 - 11) =      3.33028  eV     1   --> A              
     e( 12 - 12) =      3.54530  eV     1   --> A              
     e( 13 - 13) =      5.22449  eV     1   --> A              
     e( 14 - 14) =      5.60360  eV     1   --> A              
     e( 15 - 15) =      6.43514  eV     1   --> A              
     e( 16 - 16) =      6.54246  eV     1   --> A              
     e( 17 - 17) =      6.93953  eV     1   --> A              
     e( 18 - 18) =      7.25206  eV     1   --> A              
     e( 19 - 19) =      7.94125  eV     1   --> A              
     e( 20 - 20) =      7.98317  eV     1   --> A              
     e( 21 - 21) =      8.46669  eV     1   --> A              
     e( 22 - 22) =      9.35945  eV     1   --> A              
     e( 23 - 23) =     10.16799  eV     1   --> A              
     e( 24 - 24) =     10.26948  eV     1   --> A              
     e( 25 - 25) =     10.74031  eV     1   --> A              
     e( 26 - 26) =     11.97142  eV     1   --> A              
     e( 27 - 27) =     12.00964  eV     1   --> A              
     e( 28 - 28) =     12.95028  eV     1   --> A              
     e( 29 - 29) =     13.04846  eV     1   --> A              
     e( 30 - 30) =     13.06073  eV     1   --> A              
     e( 31 - 31) =     13.43859  eV     1   --> A              
     e( 32 - 32) =     13.47121  eV     1   --> A              
     e( 33 - 33) =     13.47947  eV     1   --> A              
     e( 34 - 34) =     13.80720  eV     1   --> A              
     e( 35 - 35) =     14.00049  eV     1   --> A              
     e( 36 - 36) =     14.35396  eV     1   --> A              
     e( 37 - 37) =     14.42518  eV     1   --> A              
     e( 38 - 38) =     14.60660  eV     1   --> A              
     e( 39 - 39) =     14.71940  eV     1   --> A              
     e( 40 - 40) =     15.26316  eV     1   --> A              

 **************************************************************************

 **************************************************************************

                    xk=(   0.42351,   0.24399,   0.00000  )

     Band symmetry, C_1 (1)     point group:

     e(  1 -  1) =    -21.55509  eV     1   --> A              
     e(  2 -  2) =    -21.52423  eV     1   --> A              
     e(  3 -  3) =     -9.53740  eV     1   --> A              
     e(  4 -  4) =     -9.25781  eV     1   --> A              
     e(  5 -  5) =     -7.93984  eV     1   --> A              
     e(  6 -  6) =     -7.83289  eV     1   --> A              
     e(  7 -  7) =     -6.81794  eV     1   --> A              
     e(  8 -  8) =     -6.11586  eV     1   --> A              
     e(  9 -  9) =     -2.64965  eV     1   --> A              
     e( 10 - 10) =      0.88618  eV     1   --> A              
     e( 11 - 11) =      3.38597  eV     1   --> A              
     e( 12 - 12) =      3.43894  eV     1   --> A              
     e( 13 - 13) =      5.45159  eV     1   --> A              
     e( 14 - 14) =      5.79496  eV     1   --> A              
     e( 15 - 15) =      6.44621  eV     1   --> A              
     e( 16 - 16) =      6.89124  eV     1   --> A              
     e( 17 - 17) =      7.23763  eV     1   --> A              
     e( 18 - 18) =      7.52380  eV     1   --> A              
     e( 19 - 19) =      7.91665  eV     1   --> A              
     e( 20 - 20) =      8.23561  eV     1   --> A              
     e( 21 - 21) =      8.79584  eV     1   --> A              
     e( 22 - 22) =      9.39308  eV     1   --> A              
     e( 23 - 23) =     10.23822  eV     1   --> A              
     e( 24 - 24) =     10.57316  eV     1   --> A              
     e( 25 - 25) =     10.58687  eV     1   --> A              
     e( 26 - 26) =     11.94453  eV     1   --> A              
     e( 27 - 27) =     12.26753  eV     1   --> A              
     e( 28 - 28) =     12.63396  eV     1   --> A              
     e( 29 - 29) =     12.76339  eV     1   --> A              
     e( 30 - 30) =     12.91943  eV     1   --> A              
     e( 31 - 31) =     13.09679  eV     1   --> A              
     e( 32 - 32) =     13.10688  eV     1   --> A              
     e( 33 - 33) =     13.22158  eV     1   --> A              
     e( 34 - 34) =     13.66618  eV     1   --> A              
     e( 35 - 35) =     13.84454  eV     1   --> A              
     e( 36 - 36) =     14.06487  eV     1   --> A              
     e( 37 - 37) =     14.13328  eV     1   --> A              
     e( 38 - 38) =     14.37022  eV     1   --> A              
     e( 39 - 39) =     14.81802  eV     1   --> A              
     e( 40 - 40) =     15.18373  eV     1   --> A              

 **************************************************************************

 **************************************************************************

                    xk=(   0.44276,   0.25508,   0.00000  )

     Band symmetry, C_1 (1)     point group:

     e(  1 -  1) =    -21.52060  eV     1   --> A              
     e(  2 -  2) =    -21.49110  eV     1   --> A              
     e(  3 -  3) =     -9.54221  eV     1   --> A              
     e(  4 -  4) =     -9.27696  eV     1   --> A              
     e(  5 -  5) =     -8.07953  eV     1   --> A              
     e(  6 -  6) =     -7.96261  eV     1   --> A              
     e(  7 -  7) =     -6.71500  eV     1   --> A              
     e(  8 -  8) =     -6.07181  eV     1   --> A              
     e(  9 -  9) =     -2.53598  eV     1   --> A              
     e( 10 - 10) =      0.63935  eV     1   --> A              
     e( 11 - 11) =      3.22850  eV     1   --> A              
     e( 12 - 12) =      3.53822  eV     1   --> A              
     e( 13 - 13) =      5.68551  eV     1   --> A              
     e( 14 - 14) =      5.99139  eV     1   --> A              
     e( 15 - 15) =      6.44249  eV     1   --> A              
     e( 16 - 16) =      7.25052  eV     1   --> A              
     e( 17 - 17) =      7.56268  eV     1   --> A              
     e( 18 - 18) =      7.67109  eV     1   --> A              
     e( 19 - 19) =      8.05625  eV     1   --> A              
     e( 20 - 20) =      8.46310  eV     1   --> A              
     e( 21 - 21) =      9.13916  eV     1   --> A              
     e( 22 - 22) =      9.36008  eV     1   --> A              
     e( 23 - 23) =     10.38756  eV     1   --> A              
     e( 24 - 24) =     10.46456  eV     1   --> A              
     e( 25 - 25) =     10.90630  eV     1   --> A              
     e( 26 - 26) =     11.79283  eV     1   --> A              
     e( 27 - 27) =     12.29528  eV     1   --> A              
     e( 28 - 28) =     12.34177  eV     1   --> A              
     e( 29 - 29) =     12.62034  eV     1   --> A              
     e( 30 - 30) =     12.65949  eV     1   --> A              
     e( 31 - 31) =     12.73929  eV     1   --> A              
     e( 32 - 32) =     12.81030  eV     1   --> A              
     e( 33 - 33) =     13.23181  eV     1   --> A              
     e( 34 - 34) =     13.34810  eV     1   --> A              
     e( 35 - 35) =     13.72235  eV     1   --> A              
     e( 36 - 36) =     13.79233  eV     1   --> A              
     e( 37 - 37) =     13.91264  eV     1   --> A              
     e( 38 - 38) =     14.13311  eV     1   --> A              
     e( 39 - 39) =     14.80705  eV     1   --> A              
     e( 40 - 40) =     15.10032  eV     1   --> A              

 **************************************************************************

 **************************************************************************

                    xk=(   0.46201,   0.26617,   0.00000  )

     Band symmetry, C_1 (1)     point group:

     e(  1 -  1) =    -21.49085  eV     1   --> A              
     e(  2 -  2) =    -21.46253  eV     1   --> A              
     e(  3 -  3) =     -9.52823  eV     1   --> A              
     e(  4 -  4) =     -9.27582  eV     1   --> A              
     e(  5 -  5) =     -8.22097  eV     1   --> A              
     e(  6 -  6) =     -8.09387  eV     1   --> A              
     e(  7 -  7) =     -6.62423  eV     1   --> A              
     e(  8 -  8) =     -6.03386  eV     1   --> A              
     e(  9 -  9) =     -2.41525  eV     1   --> A              
     e( 10 - 10) =      0.40998  eV     1   --> A              
     e( 11 - 11) =      3.07879  eV     1   --> A              
     e( 12 - 12) =      3.63005  eV     1   --> A              
     e( 13 - 13) =      5.91774  eV     1   --> A              
     e( 14 - 14) =      6.18132  eV     1   --> A              
     e( 15 - 15) =      6.43739  eV     1   --> A              
     e( 16 - 16) =      7.56996  eV     1   --> A              
     e( 17 - 17) =      7.75432  eV     1   --> A              
     e( 18 - 18) =      7.89013  eV     1   --> A              
     e( 19 - 19) =      8.35113  eV     1   --> A              
     e( 20 - 20) =      8.61582  eV     1   --> A              
     e( 21 - 21) =      9.40847  eV     1   --> A              
     e( 22 - 22) =      9.49501  eV     1   --> A              
     e( 23 - 23) =     10.19344  eV     1   --> A              
     e( 24 - 24) =     10.75322  eV     1   --> A              
     e( 25 - 25) =     11.18799  eV     1   --> A              
     e( 26 - 26) =     11.63712  eV     1   --> A              
     e( 27 - 27) =     11.97098  eV     1   --> A              
     e( 28 - 28) =     12.10094  eV     1   --> A              
     e( 29 - 29) =     12.29043  eV     1   --> A              
     e( 30 - 30) =     12.38643  eV     1   --> A              
     e( 31 - 31) =     12.39704  eV     1   --> A              
     e( 32 - 32) =     12.91477  eV     1   --> A              
     e( 33 - 33) =     13.15643  eV     1   --> A              
     e( 34 - 34) =     13.20338  eV     1   --> A              
     e( 35 - 35) =     13.42122  eV     1   --> A              
     e( 36 - 36) =     13.54777  eV     1   --> A              
     e( 37 - 37) =     13.81816  eV     1   --> A              
     e( 38 - 38) =     14.05616  eV     1   --> A              
     e( 39 - 39) =     14.58810  eV     1   --> A              
     e( 40 - 40) =     14.99483  eV     1   --> A              

 **************************************************************************

 **************************************************************************

                    xk=(   0.48126,   0.27726,   0.00000  )

     Band symmetry, C_1 (1)     point group:

     e(  1 -  1) =    -21.46602  eV     1   --> A              
     e(  2 -  2) =    -21.43868  eV     1   --> A              
     e(  3 -  3) =     -9.49521  eV     1   --> A              
     e(  4 -  4) =     -9.25448  eV     1   --> A              
     e(  5 -  5) =     -8.36315  eV     1   --> A              
     e(  6 -  6) =     -8.22576  eV     1   --> A              
     e(  7 -  7) =     -6.54743  eV     1   --> A              
     e(  8 -  8) =     -6.00222  eV     1   --> A              
     e(  9 -  9) =     -2.28989  eV     1   --> A              
     e( 10 - 10) =      0.20099  eV     1   --> A              
     e( 11 - 11) =      2.94082  eV     1   --> A              
     e( 12 - 12) =      3.71495  eV     1   --> A              
     e( 13 - 13) =      6.13485  eV     1   --> A              
     e( 14 - 14) =      6.35387  eV     1   --> A              
     e( 15 - 15) =      6.43837  eV     1   --> A              
     e( 16 - 16) =      7.65598  eV     1   --> A              
     e( 17 - 17) =      8.07622  eV     1   --> A              
     e( 18 - 18) =      8.17052  eV     1   --> A              
     e( 19 - 19) =      8.69179  eV     1   --> A              
     e( 20 - 20) =      8.71509  eV     1   --> A              
     e( 21 - 21) =      9.60021  eV     1   --> A              
     e( 22 - 22) =      9.86243  eV     1   --> A              
     e( 23 - 23) =      9.99298  eV     1   --> A              
     e( 24 - 24) =     11.05856  eV     1   --> A              
     e( 25 - 25) =     11.21691  eV     1   --> A              
     e( 26 - 26) =     11.61553  eV     1   --> A              
     e( 27 - 27) =     11.75231  eV     1   --> A              
     e( 28 - 28) =     11.84316  eV     1   --> A              
     e( 29 - 29) =     11.98308  eV     1   --> A              
     e( 30 - 30) =     12.07434  eV     1   --> A              
     e( 31 - 31) =     12.07927  eV     1   --> A              
     e( 32 - 32) =     12.69658  eV     1   --> A              
     e( 33 - 33) =     13.03678  eV     1   --> A              
     e( 34 - 34) =     13.04891  eV     1   --> A              
     e( 35 - 35) =     13.24141  eV     1   --> A              
     e( 36 - 36) =     13.50984  eV     1   --> A              
     e( 37 - 37) =     13.87752  eV     1   --> A              
     e( 38 - 38) =     13.99533  eV     1   --> A              
     e( 39 - 39) =     14.34119  eV     1   --> A              
     e( 40 - 40) =     14.77316  eV     1   --> A              

 **************************************************************************

 **************************************************************************

                    xk=(   0.50051,   0.28835,   0.00000  )

     Band symmetry, C_1 (1)     point group:

     e(  1 -  1) =    -21.44616  eV     1   --> A              
     e(  2 -  2) =    -21.41960  eV     1   --> A              
     e(  3 -  3) =     -9.44318  eV     1   --> A              
     e(  4 -  4) =     -9.21328  eV     1   --> A              
     e(  5 -  5) =     -8.50505  eV     1   --> A              
     e(  6 -  6) =     -8.35740  eV     1   --> A              
     e(  7 -  7) =     -6.48563  eV     1   --> A              
     e(  8 -  8) =     -5.97695  eV     1   --> A              
     e(  9 -  9) =     -2.16477  eV     1   --> A              
     e( 10 - 10) =      0.01661  eV     1   --> A              
     e( 11 - 11) =      2.81794  eV     1   --> A              
     e( 12 - 12) =      3.79195  eV     1   --> A              
     e( 13 - 13) =      6.30437  eV     1   --> A              
     e( 14 - 14) =      6.46715  eV     1   --> A              
     e( 15 - 15) =      6.49910  eV     1   --> A              
     e( 16 - 16) =      7.69042  eV     1   --> A              
     e( 17 - 17) =      8.30525  eV     1   --> A              
     e( 18 - 18) =      8.47955  eV     1   --> A              
     e( 19 - 19) =      8.92431  eV     1   --> A              
     e( 20 - 20) =      9.05096  eV     1   --> A              
     e( 21 - 21) =      9.75497  eV     1   --> A              
     e( 22 - 22) =      9.92494  eV     1   --> A              
     e( 23 - 23) =     10.23959  eV     1   --> A              
     e( 24 - 24) =     11.03071  eV     1   --> A              
     e( 25 - 25) =     11.28687  eV     1   --> A              
     e( 26 - 26) =     11.34610  eV     1   --> A              
     e( 27 - 27) =     11.63291  eV     1   --> A              
     e( 28 - 28) =     11.63573  eV     1   --> A              
     e( 29 - 29) =     11.75823  eV     1   --> A              
     e( 30 - 30) =     11.81820  eV     1   --> A              
     e( 31 - 31) =     12.09250  eV     1   --> A              
     e( 32 - 32) =     12.44204  eV     1   --> A              
     e( 33 - 33) =     12.78081  eV     1   --> A              
     e( 34 - 34) =     12.81791  eV     1   --> A              
     e( 35 - 35) =     12.94145  eV     1   --> A              
     e( 36 - 36) =     13.82173  eV     1   --> A              
     e( 37 - 37) =     13.83737  eV     1   --> A              
     e( 38 - 38) =     14.02402  eV     1   --> A              
     e( 39 - 39) =     14.14129  eV     1   --> A              
     e( 40 - 40) =     14.49519  eV     1   --> A              

 **************************************************************************

 **************************************************************************

                    xk=(   0.51976,   0.29944,   0.00000  )

     Band symmetry, C_1 (1)     point group:

     e(  1 -  1) =    -21.43118  eV     1   --> A              
     e(  2 -  2) =    -21.40521  eV     1   --> A              
     e(  3 -  3) =     -9.37254  eV     1   --> A              
     e(  4 -  4) =     -9.15276  eV     1   --> A              
     e(  5 -  5) =     -8.64564  eV     1   --> A              
     e(  6 -  6) =     -8.48787  eV     1   --> A              
     e(  7 -  7) =     -6.43910  eV     1   --> A              
     e(  8 -  8) =     -5.95794  eV     1   --> A              
     e(  9 -  9) =     -2.04798  eV     1   --> A              
     e( 10 - 10) =     -0.13716  eV     1   --> A              
[...]

                    xk=(   0.11550,   0.00000,   0.00000  )

     Band symmetry, C_s (m)     point group:

     e(  1 -  1) =    -22.35097  eV     1   --> A'             
     e(  2 -  2) =    -22.28944  eV     1   --> A'             
     e(  3 -  3) =     -9.22424  eV     1   --> A'             
     e(  4 -  4) =     -7.16683  eV     1   --> A'             
     e(  5 -  5) =     -6.82587  eV     1   --> A'             
     e(  6 -  6) =     -6.79463  eV     1   --> A'             
     e(  7 -  7) =     -6.45976  eV     1   --> A''            
     e(  8 -  8) =     -6.43729  eV     1   --> A''            
     e(  9 -  9) =     -4.02927  eV     1   --> A'             
     e( 10 - 10) =      0.29101  eV     1   --> A'             
     e( 11 - 11) =      2.25183  eV     1   --> A'             
     e( 12 - 12) =      2.99140  eV     1   --> A'             
     e( 13 - 13) =      3.05332  eV     1   --> A'             
     e( 14 - 14) =      3.69161  eV     1   --> A'             
     e( 15 - 15) =      3.88786  eV     1   --> A'             
     e( 16 - 16) =      4.87660  eV     1   --> A'             
     e( 17 - 17) =      5.42270  eV     1   --> A'             
     e( 18 - 18) =      6.73966  eV     1   --> A'             
     e( 19 - 19) =      6.76289  eV     1   --> A'             
     e( 20 - 20) =      7.27292  eV     1   --> A'             
     e( 21 - 21) =      8.52011  eV     1   --> A''            
     e( 22 - 22) =      8.55587  eV     1   --> A'             
     e( 23 - 23) =      9.25051  eV     1   --> A'             
     e( 24 - 24) =      9.42036  eV     1   --> A'             
     e( 25 - 25) =     10.26119  eV     1   --> A''            
     e( 26 - 26) =     10.89023  eV     1   --> A'             
     e( 27 - 27) =     11.46275  eV     1   --> A'             
     e( 28 - 28) =     12.13545  eV     1   --> A'             
     e( 29 - 29) =     12.18638  eV     1   --> A''            
     e( 30 - 30) =     13.59503  eV     1   --> A'             
     e( 31 - 31) =     14.75008  eV     1   --> A'             
     e( 32 - 32) =     14.85057  eV     1   --> A'             
     e( 33 - 33) =     15.69775  eV     1   --> A'             
     e( 34 - 34) =     16.05448  eV     1   --> A''            
     e( 35 - 35) =     16.45711  eV     1   --> A''            
     e( 36 - 36) =     16.85155  eV     1   --> A'             
     e( 37 - 37) =     17.21831  eV     1   --> A'             
     e( 38 - 38) =     18.48573  eV     1   --> A'             
     e( 39 - 39) =     18.97110  eV     1   --> A'             
     e( 40 - 40) =     19.28355  eV     1   --> A'             

 **************************************************************************

 **************************************************************************

                    xk=(   0.09625,   0.00000,   0.00000  )

     Band symmetry, C_s (m)     point group:

     e(  1 -  1) =    -22.37410  eV     1   --> A'             
     e(  2 -  2) =    -22.31172  eV     1   --> A'             
     e(  3 -  3) =     -9.26084  eV     1   --> A'             
     e(  4 -  4) =     -7.18504  eV     1   --> A'             
     e(  5 -  5) =     -6.70436  eV     1   --> A'             
     e(  6 -  6) =     -6.67562  eV     1   --> A'             
     e(  7 -  7) =     -6.43913  eV     1   --> A''            
     e(  8 -  8) =     -6.41719  eV     1   --> A''            
     e(  9 -  9) =     -4.08790  eV     1   --> A'             
     e( 10 - 10) =      0.15706  eV     1   --> A'             
     e( 11 - 11) =      2.17306  eV     1   --> A'             
     e( 12 - 12) =      2.92932  eV     1   --> A'             
     e( 13 - 13) =      2.98028  eV     1   --> A'             
     e( 14 - 14) =      3.61056  eV     1   --> A'             
     e( 15 - 15) =      3.82930  eV     1   --> A'             
     e( 16 - 16) =      4.80931  eV     1   --> A'             
     e( 17 - 17) =      5.38119  eV     1   --> A'             
     e( 18 - 18) =      6.72945  eV     1   --> A'             
     e( 19 - 19) =      6.76301  eV     1   --> A'             
     e( 20 - 20) =      7.53943  eV     1   --> A'             
     e( 21 - 21) =      8.48867  eV     1   --> A'             
     e( 22 - 22) =      8.56155  eV     1   --> A''            
     e( 23 - 23) =      9.40176  eV     1   --> A'             
     e( 24 - 24) =      9.44466  eV     1   --> A'             
     e( 25 - 25) =     10.18079  eV     1   --> A''            
     e( 26 - 26) =     11.11694  eV     1   --> A'             
     e( 27 - 27) =     11.39776  eV     1   --> A'             
     e( 28 - 28) =     11.99424  eV     1   --> A'             
     e( 29 - 29) =     12.16831  eV     1   --> A''            
     e( 30 - 30) =     13.49155  eV     1   --> A'             
     e( 31 - 31) =     14.76345  eV     1   --> A'             
     e( 32 - 32) =     14.99670  eV     1   --> A'             
     e( 33 - 33) =     15.84747  eV     1   --> A'             
     e( 34 - 34) =     16.17139  eV     1   --> A''            
     e( 35 - 35) =     16.22406  eV     1   --> A''            
     e( 36 - 36) =     16.63078  eV     1   --> A'             
     e( 37 - 37) =     16.94417  eV     1   --> A'             
     e( 38 - 38) =     18.24918  eV     1   --> A'             
     e( 39 - 39) =     19.04766  eV     1   --> A'             
     e( 40 - 40) =     19.26559  eV     1   --> A'             

 **************************************************************************

 **************************************************************************

                    xk=(   0.07700,   0.00000,   0.00000  )

     Band symmetry, C_s (m)     point group:

     e(  1 -  1) =    -22.39327  eV     1   --> A'             
     e(  2 -  2) =    -22.33019  eV     1   --> A'             
     e(  3 -  3) =     -9.29183  eV     1   --> A'             
     e(  4 -  4) =     -7.20381  eV     1   --> A'             
     e(  5 -  5) =     -6.59663  eV     1   --> A'             
     e(  6 -  6) =     -6.56906  eV     1   --> A'             
     e(  7 -  7) =     -6.42183  eV     1   --> A''            
     e(  8 -  8) =     -6.40034  eV     1   --> A''            
     e(  9 -  9) =     -4.14103  eV     1   --> A'             
     e( 10 - 10) =      0.04167  eV     1   --> A'             
     e( 11 - 11) =      2.10603  eV     1   --> A'             
     e( 12 - 12) =      2.87797  eV     1   --> A'             
     e( 13 - 13) =      2.92008  eV     1   --> A'             
     e( 14 - 14) =      3.54314  eV     1   --> A'             
     e( 15 - 15) =      3.78096  eV     1   --> A'             
     e( 16 - 16) =      4.75283  eV     1   --> A'             
     e( 17 - 17) =      5.34651  eV     1   --> A'             
     e( 18 - 18) =      6.70238  eV     1   --> A'             
     e( 19 - 19) =      6.74318  eV     1   --> A'             
     e( 20 - 20) =      7.84535  eV     1   --> A'             
     e( 21 - 21) =      8.43212  eV     1   --> A'             
     e( 22 - 22) =      8.59327  eV     1   --> A''            
     e( 23 - 23) =      9.37145  eV     1   --> A'             
     e( 24 - 24) =      9.62571  eV     1   --> A'             
     e( 25 - 25) =     10.11329  eV     1   --> A''            
     e( 26 - 26) =     11.30162  eV     1   --> A'             
     e( 27 - 27) =     11.34367  eV     1   --> A'             
     e( 28 - 28) =     11.88736  eV     1   --> A'             
     e( 29 - 29) =     12.16543  eV     1   --> A''            
     e( 30 - 30) =     13.38479  eV     1   --> A'             
     e( 31 - 31) =     14.74584  eV     1   --> A'             
     e( 32 - 32) =     15.16086  eV     1   --> A'             
     e( 33 - 33) =     15.98904  eV     1   --> A'             
     e( 34 - 34) =     16.02213  eV     1   --> A''            
     e( 35 - 35) =     16.28132  eV     1   --> A''            
     e( 36 - 36) =     16.40493  eV     1   --> A'             
     e( 37 - 37) =     16.71570  eV     1   --> A'             
     e( 38 - 38) =     18.05165  eV     1   --> A'             
     e( 39 - 39) =     19.11996  eV     1   --> A'             
     e( 40 - 40) =     19.20765  eV     1   --> A'             

 **************************************************************************

 **************************************************************************

                    xk=(   0.05775,   0.00000,   0.00000  )

     Band symmetry, C_s (m)     point group:

     e(  1 -  1) =    -22.40834  eV     1   --> A'             
     e(  2 -  2) =    -22.34471  eV     1   --> A'             
     e(  3 -  3) =     -9.31652  eV     1   --> A'             
     e(  4 -  4) =     -7.21975  eV     1   --> A'             
     e(  5 -  5) =     -6.50684  eV     1   --> A'             
     e(  6 -  6) =     -6.48115  eV     1   --> A'             
     e(  7 -  7) =     -6.40810  eV     1   --> A''            
     e(  8 -  8) =     -6.38699  eV     1   --> A''            
     e(  9 -  9) =     -4.18638  eV     1   --> A'             
     e( 10 - 10) =     -0.05207  eV     1   --> A'             
     e( 11 - 11) =      2.05218  eV     1   --> A'             
     e( 12 - 12) =      2.83771  eV     1   --> A'             
     e( 13 - 13) =      2.87300  eV     1   --> A'             
     e( 14 - 14) =      3.49014  eV     1   --> A'             
     e( 15 - 15) =      3.74309  eV     1   --> A'             
     e( 16 - 16) =      4.70824  eV     1   --> A'             
     e( 17 - 17) =      5.31908  eV     1   --> A'             
     e( 18 - 18) =      6.68157  eV     1   --> A'             
     e( 19 - 19) =      6.71732  eV     1   --> A'             
     e( 20 - 20) =      8.14161  eV     1   --> A'             
     e( 21 - 21) =      8.38755  eV     1   --> A'             
     e( 22 - 22) =      8.61625  eV     1   --> A''            
     e( 23 - 23) =      9.33429  eV     1   --> A'             
     e( 24 - 24) =      9.78280  eV     1   --> A'             
     e( 25 - 25) =     10.05973  eV     1   --> A''            
     e( 26 - 26) =     11.30079  eV     1   --> A'             
     e( 27 - 27) =     11.34531  eV     1   --> A'             
     e( 28 - 28) =     11.90841  eV     1   --> A'             
     e( 29 - 29) =     12.17226  eV     1   --> A''            
     e( 30 - 30) =     13.28436  eV     1   --> A'             
     e( 31 - 31) =     14.71619  eV     1   --> A'             
     e( 32 - 32) =     15.32430  eV     1   --> A'             
     e( 33 - 33) =     15.85676  eV     1   --> A''            
     e( 34 - 34) =     16.07788  eV     1   --> A'             
     e( 35 - 35) =     16.18918  eV     1   --> A'             
     e( 36 - 36) =     16.37786  eV     1   --> A''            
     e( 37 - 37) =     16.56560  eV     1   --> A'             
     e( 38 - 38) =     17.89563  eV     1   --> A'             
     e( 39 - 39) =     19.13171  eV     1   --> A'             
     e( 40 - 40) =     19.18599  eV     1   --> A'             

 **************************************************************************

 **************************************************************************

                    xk=(   0.03850,   0.00000,   0.00000  )

     Band symmetry, C_s (m)     point group:

     e(  1 -  1) =    -22.41918  eV     1   --> A'             
     e(  2 -  2) =    -22.35516  eV     1   --> A'             
     e(  3 -  3) =     -9.33446  eV     1   --> A'             
     e(  4 -  4) =     -7.23165  eV     1   --> A'             
     e(  5 -  5) =     -6.43902  eV     1   --> A'             
     e(  6 -  6) =     -6.41568  eV     1   --> A'             
     e(  7 -  7) =     -6.39816  eV     1   --> A''            
     e(  8 -  8) =     -6.37729  eV     1   --> A''            
     e(  9 -  9) =     -4.22138  eV     1   --> A'             
     e( 10 - 10) =     -0.12135  eV     1   --> A'             
     e( 11 - 11) =      2.01276  eV     1   --> A'             
     e( 12 - 12) =      2.80879  eV     1   --> A'             
     e( 13 - 13) =      2.83923  eV     1   --> A'             
     e( 14 - 14) =      3.45203  eV     1   --> A'             
     e( 15 - 15) =      3.71590  eV     1   --> A'             
     e( 16 - 16) =      4.67610  eV     1   --> A'             
     e( 17 - 17) =      5.29922  eV     1   --> A'             
     e( 18 - 18) =      6.66686  eV     1   --> A'             
     e( 19 - 19) =      6.69576  eV     1   --> A'             
     e( 20 - 20) =      8.35549  eV     1   --> A'             
     e( 21 - 21) =      8.40041  eV     1   --> A'             
     e( 22 - 22) =      8.63160  eV     1   --> A''            
     e( 23 - 23) =      9.29214  eV     1   --> A'             
     e( 24 - 24) =      9.90538  eV     1   --> A'             
     e( 25 - 25) =     10.02091  eV     1   --> A''            
     e( 26 - 26) =     11.26162  eV     1   --> A'             
     e( 27 - 27) =     11.26962  eV     1   --> A'             
     e( 28 - 28) =     12.04316  eV     1   --> A'             
     e( 29 - 29) =     12.18289  eV     1   --> A''            
     e( 30 - 30) =     13.19610  eV     1   --> A'             
     e( 31 - 31) =     14.68619  eV     1   --> A'             
     e( 32 - 32) =     15.47084  eV     1   --> A'             
     e( 33 - 33) =     15.73346  eV     1   --> A''            
     e( 34 - 34) =     16.00204  eV     1   --> A'             
     e( 35 - 35) =     16.08219  eV     1   --> A'             
     e( 36 - 36) =     16.45402  eV     1   --> A''            
     e( 37 - 37) =     16.52015  eV     1   --> A'             
     e( 38 - 38) =     17.78067  eV     1   --> A'             
     e( 39 - 39) =     19.05668  eV     1   --> A'             
     e( 40 - 40) =     19.24057  eV     1   --> A'             

 **************************************************************************

 **************************************************************************

                    xk=(   0.01925,   0.00000,   0.00000  )

     Band symmetry, C_s (m)     point group:

     e(  1 -  1) =    -22.42572  eV     1   --> A'             
     e(  2 -  2) =    -22.36145  eV     1   --> A'             
     e(  3 -  3) =     -9.34534  eV     1   --> A'             
     e(  4 -  4) =     -7.23895  eV     1   --> A'             
     e(  5 -  5) =     -6.39670  eV     1   --> A'             
     e(  6 -  6) =     -6.39214  eV     1   --> A''            
     e(  7 -  7) =     -6.37530  eV     1   --> A'             
     e(  8 -  8) =     -6.37139  eV     1   --> A''            
     e(  9 -  9) =     -4.24360  eV     1   --> A'             
     e( 10 - 10) =     -0.16390  eV     1   --> A'             
     e( 11 - 11) =      1.98870  eV     1   --> A'             
     e( 12 - 12) =      2.79137  eV     1   --> A'             
     e( 13 - 13) =      2.81892  eV     1   --> A'             
     e( 14 - 14) =      3.42907  eV     1   --> A'             
     e( 15 - 15) =      3.69952  eV     1   --> A'             
     e( 16 - 16) =      4.65671  eV     1   --> A'             
     e( 17 - 17) =      5.28721  eV     1   --> A'             
     e( 18 - 18) =      6.65810  eV     1   --> A'             
     e( 19 - 19) =      6.68197  eV     1   --> A'             
     e( 20 - 20) =      8.33617  eV     1   --> A'             
     e( 21 - 21) =      8.58977  eV     1   --> A'             
     e( 22 - 22) =      8.64035  eV     1   --> A''            
     e( 23 - 23) =      9.25027  eV     1   --> A'             
     e( 24 - 24) =      9.98373  eV     1   --> A'             
     e( 25 - 25) =      9.99740  eV     1   --> A''            
     e( 26 - 26) =     11.17062  eV     1   --> A'             
     e( 27 - 27) =     11.25050  eV     1   --> A'             
     e( 28 - 28) =     12.17077  eV     1   --> A'             
     e( 29 - 29) =     12.19189  eV     1   --> A''            
     e( 30 - 30) =     13.12961  eV     1   --> A'             
     e( 31 - 31) =     14.66424  eV     1   --> A'             
     e( 32 - 32) =     15.58673  eV     1   --> A'             
     e( 33 - 33) =     15.65713  eV     1   --> A''            
     e( 34 - 34) =     15.86064  eV     1   --> A'             
     e( 35 - 35) =     16.04529  eV     1   --> A'             
     e( 36 - 36) =     16.50311  eV     1   --> A''            
     e( 37 - 37) =     16.53337  eV     1   --> A'             
     e( 38 - 38) =     17.70863  eV     1   --> A'             
     e( 39 - 39) =     19.00154  eV     1   --> A'             
     e( 40 - 40) =     19.27711  eV     1   --> A'             

 **************************************************************************

 **************************************************************************

                    xk=(   0.00000,   0.00000,   0.00000  )

     Band symmetry, C_s (m)     point group:

     e(  1 -  1) =    -22.42791  eV     1   --> A'             
     e(  2 -  2) =    -22.36356  eV     1   --> A'             
     e(  3 -  3) =     -9.34897  eV     1   --> A'             
     e(  4 -  4) =     -7.24141  eV     1   --> A'             
     e(  5 -  5) =     -6.39010  eV     1   --> A''            
     e(  6 -  6) =     -6.38227  eV     1   --> A'             
     e(  7 -  7) =     -6.36941  eV     1   --> A''            
     e(  8 -  8) =     -6.36163  eV     1   --> A'             
     e(  9 -  9) =     -4.25121  eV     1   --> A'             
     e( 10 - 10) =     -0.17826  eV     1   --> A'             
     e( 11 - 11) =      1.98062  eV     1   --> A'             
     e( 12 - 12) =      2.78556  eV     1   --> A'             
     e( 13 - 13) =      2.81214  eV     1   --> A'             
     e( 14 - 14) =      3.42140  eV     1   --> A'             
     e( 15 - 15) =      3.69405  eV     1   --> A'             
     e( 16 - 16) =      4.65024  eV     1   --> A'             
     e( 17 - 17) =      5.28318  eV     1   --> A'             
     e( 18 - 18) =      6.65520  eV     1   --> A'             
     e( 19 - 19) =      6.67725  eV     1   --> A'             
     e( 20 - 20) =      8.32972  eV     1   --> A'             
     e( 21 - 21) =      8.64318  eV     1   --> A''            
     e( 22 - 22) =      8.66332  eV     1   --> A'             
     e( 23 - 23) =      9.22964  eV     1   --> A'             
     e( 24 - 24) =      9.98953  eV     1   --> A''            
     e( 25 - 25) =     10.01074  eV     1   --> A'             
     e( 26 - 26) =     11.13411  eV     1   --> A'             
     e( 27 - 27) =     11.24407  eV     1   --> A'             
     e( 28 - 28) =     12.19536  eV     1   --> A''            
     e( 29 - 29) =     12.22177  eV     1   --> A'             
     e( 30 - 30) =     13.10333  eV     1   --> A'             
     e( 31 - 31) =     14.65619  eV     1   --> A'             
     e( 32 - 32) =     15.63127  eV     1   --> A''            
     e( 33 - 33) =     15.64460  eV     1   --> A'             
     e( 34 - 34) =     15.79417  eV     1   --> A'             
     e( 35 - 35) =     16.02715  eV     1   --> A'             
     e( 36 - 36) =     16.52010  eV     1   --> A''            
     e( 37 - 37) =     16.54380  eV     1   --> A'             
     e( 38 - 38) =     17.68381  eV     1   --> A'             
     e( 39 - 39) =     18.98127  eV     1   --> A'             
     e( 40 - 40) =     19.29003  eV     1   --> A'             

 **************************************************************************
 
     BANDS        :      4.74s CPU      7.86s WALL

 
   This run was terminated on:  22:19: 4  19Jun2023            

=------------------------------------------------------------------------------=
   JOB DONE.
=------------------------------------------------------------------------------=
