
     Program PWSCF v.7.1 starts on 19Jun2023 at 22:16:45 

     This program is part of the open-source Quantum ESPRESSO suite
     for quantum simulation of materials; please cite
         "P. Giannozzi et al., J. Phys.:Condens. Matter 21 395502 (2009);
         "P. Giannozzi et al., J. Phys.:Condens. Matter 29 465901 (2017);
         "P. Giannozzi et al., J. Chem. Phys. 152 154105 (2020);
          URL http://www.quantum-espresso.org", 
     in publications or presentations arising from this work. More details at
     http://www.quantum-espresso.org/quote

     Parallel version (MPI), running on    22 processors

     MPI processes distributed on     1 nodes
     47364 MiB available memory on the printing compute node when the environment starts
 
     Waiting for input...
     Reading input from standard input

     Current dimensions of program PWSCF are:
     Max number of different atomic species (ntypx) = 10
     Max number of k-points (npk) =  40000
     Max angular momentum in pseudopotentials (lmaxx) =  4
     Message from routine volume:
     axis vectors are left-handed

     Atomic positions and unit cell read from directory:
     ./work/Al2O2.save/
     Atomic positions from file used, from input discarded
 
     Message from routine volume:
     axis vectors are left-handed
     file Al.pbe-n-kjpaw_psl.1.0.0.UPF: wavefunction(s)  3S 3P renormalized
     file O.pbe-n-kjpaw_psl.1.0.0.UPF: wavefunction(s)  2S 2P renormalized
     Message from routine setup:
     using ibrav=0 with symmetry is DISCOURAGED, use correct ibrav instead
 
     R & G space division:  proc/nbgrp/npool/nimage =      22
     Subspace diagonalization in iterative solution of the eigenvalue problem:
     a serial algorithm will be used

 
     Parallelization info
     --------------------
     sticks:   dense  smooth     PW     G-vecs:    dense   smooth      PW
     Min          23      23      7                 3655     3655     599
     Max          24      24      9                 3696     3696     613
     Sum         511     511    163                80843    80843   13357
 
     Using Slab Decomposition
 


     bravais-lattice index     =            0
     lattice parameter (alat)  =       5.6114  a.u.
     unit-cell volume          =    1288.9767 (a.u.)^3
     number of atoms/cell      =            4
     number of atomic types    =            2
     number of electrons       =        18.00
     number of Kohn-Sham states=           40
     kinetic-energy cutoff     =      60.0000  Ry
     charge density cutoff     =     240.0000  Ry
     Exchange-correlation= SLA  PW   PBX  PBC
                           (   1   4   3   4   0   0   0)

     celldm(1)=   5.611386  celldm(2)=   0.000000  celldm(3)=   0.000000
     celldm(4)=   0.000000  celldm(5)=   0.000000  celldm(6)=   0.000000

     crystal axes: (cart. coord. in units of alat)
               a(1) = (   0.865790   0.500407   0.000000 )  
               a(2) = (   0.865790  -0.500407   0.000000 )  
               a(3) = (   0.000000   0.000000   8.419160 )  

     reciprocal axes: (cart. coord. in units 2 pi/alat)
               b(1) = (  0.577507  0.999187  0.000000 )  
               b(2) = (  0.577507 -0.999187  0.000000 )  
               b(3) = (  0.000000  0.000000  0.118777 )  


     PseudoPot. # 1 for Al read from file:
     /home/mainadmin/research/danu/pseudo/Al.pbe-n-kjpaw_psl.1.0.0.UPF
     MD5 check sum: 502b6b27b9c6270cab5dd1084b96fa6d
     Pseudo is Projector augmented-wave + core cor, Zval =  3.0
     Generated using &quot;atomic&quot; code by A. Dal Corso  v.6.3
     Shape of augmentation charge: PSQ
     Using radial grid of 1135 points,  6 beta functions with: 
                l(1) =   0
                l(2) =   0
                l(3) =   1
                l(4) =   1
                l(5) =   2
                l(6) =   2
     Q(r) pseudized with 0 coefficients 


     PseudoPot. # 2 for O  read from file:
     /home/mainadmin/research/danu/pseudo/O.pbe-n-kjpaw_psl.1.0.0.UPF
     MD5 check sum: e99d9cef9b487d1ca56f5b95ecd0fd7a
     Pseudo is Projector augmented-wave + core cor, Zval =  6.0
     Generated using &quot;atomic&quot; code by A. Dal Corso  v.6.3
     Shape of augmentation charge: PSQ
     Using radial grid of 1095 points,  4 beta functions with: 
                l(1) =   0
                l(2) =   0
                l(3) =   1
                l(4) =   1
     Q(r) pseudized with 0 coefficients 


     atomic species   valence    mass     pseudopotential
        Al             3.00    26.98100     Al( 1.00)
        O              6.00    15.99900     O ( 1.00)

      2 Sym. Ops. (no inversion) found


                                    s                        frac. trans.

      isym =  1     identity                                     

 cryst.   s( 1) = (     1          0          0      )
                  (     0          1          0      )
                  (     0          0          1      )

 cart.    s( 1) = (  1.0000000  0.0000000  0.0000000 )
                  (  0.0000000  1.0000000  0.0000000 )
                  (  0.0000000  0.0000000  1.0000000 )


      isym =  2     inv. 180 deg rotation - cart. axis [0,1,0]   

 cryst.   s( 2) = (     0          1          0      )
                  (     1          0          0      )
                  (     0          0          1      )

 cart.    s( 2) = (  1.0000000  0.0000000  0.0000000 )
                  (  0.0000000 -1.0000000  0.0000000 )
                  (  0.0000000  0.0000000  1.0000000 )


   Cartesian axes

     site n.     atom                  positions (alat units)
         1           O   tau(   1) = (   1.1545548   0.0000000   3.5560643  )
         2           Al  tau(   2) = (   0.5770825   0.0000000   3.7791201  )
         3           Al  tau(   3) = (   0.5770294   0.0000000   4.6620761  )
         4           O   tau(   4) = (   1.1544952   0.0000000   4.8850991  )

   Crystallographic axes

     site n.     atom                  positions (cryst. coord.)
         1           O   tau(   1) = (  0.6667634  0.6667634  0.4223776  )
         2           Al  tau(   2) = (  0.3332692  0.3332692  0.4488714  )
         3           Al  tau(   3) = (  0.3332385  0.3332385  0.5537460  )
         4           O   tau(   4) = (  0.6667290  0.6667290  0.5802360  )

     number of k points=    91
                       cart. coord. in units 2pi/alat
        k(    1) = (   0.0000000   0.0000000   0.0000000), wk =   0.0219780
        k(    2) = (   0.0192502   0.0110903   0.0000000), wk =   0.0219780
        k(    3) = (   0.0385005   0.0221806   0.0000000), wk =   0.0219780
        k(    4) = (   0.0577507   0.0332709   0.0000000), wk =   0.0219780
        k(    5) = (   0.0770009   0.0443612   0.0000000), wk =   0.0219780
        k(    6) = (   0.0962512   0.0554516   0.0000000), wk =   0.0219780
        k(    7) = (   0.1155014   0.0665419   0.0000000), wk =   0.0219780
        k(    8) = (   0.1347516   0.0776322   0.0000000), wk =   0.0219780
        k(    9) = (   0.1540019   0.0887225   0.0000000), wk =   0.0219780
        k(   10) = (   0.1732521   0.0998128   0.0000000), wk =   0.0219780
        k(   11) = (   0.1925023   0.1109031   0.0000000), wk =   0.0219780
        k(   12) = (   0.2117525   0.1219934   0.0000000), wk =   0.0219780
        k(   13) = (   0.2310028   0.1330837   0.0000000), wk =   0.0219780
        k(   14) = (   0.2502530   0.1441741   0.0000000), wk =   0.0219780
        k(   15) = (   0.2695032   0.1552644   0.0000000), wk =   0.0219780
        k(   16) = (   0.2887535   0.1663547   0.0000000), wk =   0.0219780
        k(   17) = (   0.3080037   0.1774450   0.0000000), wk =   0.0219780
        k(   18) = (   0.3272539   0.1885353   0.0000000), wk =   0.0219780
        k(   19) = (   0.3465042   0.1996256   0.0000000), wk =   0.0219780
        k(   20) = (   0.3657544   0.2107159   0.0000000), wk =   0.0219780
        k(   21) = (   0.3850046   0.2218062   0.0000000), wk =   0.0219780
        k(   22) = (   0.4042549   0.2328966   0.0000000), wk =   0.0219780
        k(   23) = (   0.4235051   0.2439869   0.0000000), wk =   0.0219780
        k(   24) = (   0.4427553   0.2550772   0.0000000), wk =   0.0219780
        k(   25) = (   0.4620056   0.2661675   0.0000000), wk =   0.0219780
        k(   26) = (   0.4812558   0.2772578   0.0000000), wk =   0.0219780
        k(   27) = (   0.5005060   0.2883481   0.0000000), wk =   0.0219780
        k(   28) = (   0.5197562   0.2994384   0.0000000), wk =   0.0219780
        k(   29) = (   0.5390065   0.3105287   0.0000000), wk =   0.0219780
        k(   30) = (   0.5582567   0.3216191   0.0000000), wk =   0.0219780
        k(   31) = (   0.5775069   0.3327094   0.0000000), wk =   0.0219780
        k(   32) = (   0.5775069   0.3216191   0.0000000), wk =   0.0219780
        k(   33) = (   0.5775069   0.3105287   0.0000000), wk =   0.0219780
        k(   34) = (   0.5775069   0.2994384   0.0000000), wk =   0.0219780
        k(   35) = (   0.5775069   0.2883481   0.0000000), wk =   0.0219780
        k(   36) = (   0.5775069   0.2772578   0.0000000), wk =   0.0219780
        k(   37) = (   0.5775069   0.2661675   0.0000000), wk =   0.0219780
        k(   38) = (   0.5775069   0.2550772   0.0000000), wk =   0.0219780
        k(   39) = (   0.5775069   0.2439869   0.0000000), wk =   0.0219780
        k(   40) = (   0.5775069   0.2328966   0.0000000), wk =   0.0219780
        k(   41) = (   0.5775069   0.2218062   0.0000000), wk =   0.0219780
        k(   42) = (   0.5775069   0.2107159   0.0000000), wk =   0.0219780
        k(   43) = (   0.5775069   0.1996256   0.0000000), wk =   0.0219780
        k(   44) = (   0.5775069   0.1885353   0.0000000), wk =   0.0219780
        k(   45) = (   0.5775069   0.1774450   0.0000000), wk =   0.0219780
        k(   46) = (   0.5775069   0.1663547   0.0000000), wk =   0.0219780
        k(   47) = (   0.5775069   0.1552644   0.0000000), wk =   0.0219780
        k(   48) = (   0.5775069   0.1441741   0.0000000), wk =   0.0219780
        k(   49) = (   0.5775069   0.1330837   0.0000000), wk =   0.0219780
        k(   50) = (   0.5775069   0.1219934   0.0000000), wk =   0.0219780
        k(   51) = (   0.5775069   0.1109031   0.0000000), wk =   0.0219780
        k(   52) = (   0.5775069   0.0998128   0.0000000), wk =   0.0219780
        k(   53) = (   0.5775069   0.0887225   0.0000000), wk =   0.0219780
        k(   54) = (   0.5775069   0.0776322   0.0000000), wk =   0.0219780
        k(   55) = (   0.5775069   0.0665419   0.0000000), wk =   0.0219780
        k(   56) = (   0.5775069   0.0554516   0.0000000), wk =   0.0219780
        k(   57) = (   0.5775069   0.0443612   0.0000000), wk =   0.0219780
        k(   58) = (   0.5775069   0.0332709   0.0000000), wk =   0.0219780
        k(   59) = (   0.5775069   0.0221806   0.0000000), wk =   0.0219780
        k(   60) = (   0.5775069   0.0110903   0.0000000), wk =   0.0219780
        k(   61) = (   0.5775069   0.0000000   0.0000000), wk =   0.0219780
        k(   62) = (   0.5582567   0.0000000   0.0000000), wk =   0.0219780
        k(   63) = (   0.5390065   0.0000000   0.0000000), wk =   0.0219780
        k(   64) = (   0.5197562   0.0000000   0.0000000), wk =   0.0219780
        k(   65) = (   0.5005060   0.0000000   0.0000000), wk =   0.0219780
        k(   66) = (   0.4812558   0.0000000   0.0000000), wk =   0.0219780
        k(   67) = (   0.4620056   0.0000000   0.0000000), wk =   0.0219780
        k(   68) = (   0.4427553   0.0000000   0.0000000), wk =   0.0219780
        k(   69) = (   0.4235051   0.0000000   0.0000000), wk =   0.0219780
        k(   70) = (   0.4042549   0.0000000   0.0000000), wk =   0.0219780
        k(   71) = (   0.3850046   0.0000000   0.0000000), wk =   0.0219780
        k(   72) = (   0.3657544   0.0000000   0.0000000), wk =   0.0219780
        k(   73) = (   0.3465042   0.0000000   0.0000000), wk =   0.0219780
        k(   74) = (   0.3272539   0.0000000   0.0000000), wk =   0.0219780
        k(   75) = (   0.3080037   0.0000000   0.0000000), wk =   0.0219780
        k(   76) = (   0.2887535   0.0000000   0.0000000), wk =   0.0219780
        k(   77) = (   0.2695032   0.0000000   0.0000000), wk =   0.0219780
        k(   78) = (   0.2502530   0.0000000   0.0000000), wk =   0.0219780
        k(   79) = (   0.2310028   0.0000000   0.0000000), wk =   0.0219780
        k(   80) = (   0.2117525   0.0000000   0.0000000), wk =   0.0219780
        k(   81) = (   0.1925023   0.0000000   0.0000000), wk =   0.0219780
        k(   82) = (   0.1732521   0.0000000   0.0000000), wk =   0.0219780
        k(   83) = (   0.1540019   0.0000000   0.0000000), wk =   0.0219780
        k(   84) = (   0.1347516   0.0000000   0.0000000), wk =   0.0219780
        k(   85) = (   0.1155014   0.0000000   0.0000000), wk =   0.0219780
        k(   86) = (   0.0962512   0.0000000   0.0000000), wk =   0.0219780
        k(   87) = (   0.0770009   0.0000000   0.0000000), wk =   0.0219780
        k(   88) = (   0.0577507   0.0000000   0.0000000), wk =   0.0219780
        k(   89) = (   0.0385005   0.0000000   0.0000000), wk =   0.0219780
        k(   90) = (   0.0192502   0.0000000   0.0000000), wk =   0.0219780
        k(   91) = (   0.0000000   0.0000000   0.0000000), wk =   0.0219780

                       cryst. coord.
        k(    1) = (   0.0000000   0.0000000   0.0000000), wk =   0.0219780
        k(    2) = (   0.0222163   0.0111170   0.0000000), wk =   0.0219780
        k(    3) = (   0.0444327   0.0222340   0.0000000), wk =   0.0219780
        k(    4) = (   0.0666490   0.0333510   0.0000000), wk =   0.0219780
        k(    5) = (   0.0888653   0.0444680   0.0000000), wk =   0.0219780
        k(    6) = (   0.1110817   0.0555850   0.0000000), wk =   0.0219780
        k(    7) = (   0.1332980   0.0667020   0.0000000), wk =   0.0219780
        k(    8) = (   0.1555143   0.0778190   0.0000000), wk =   0.0219780
        k(    9) = (   0.1777307   0.0889360   0.0000000), wk =   0.0219780
        k(   10) = (   0.1999470   0.1000530   0.0000000), wk =   0.0219780
        k(   11) = (   0.2221633   0.1111700   0.0000000), wk =   0.0219780
        k(   12) = (   0.2443797   0.1222870   0.0000000), wk =   0.0219780
        k(   13) = (   0.2665960   0.1334040   0.0000000), wk =   0.0219780
        k(   14) = (   0.2888123   0.1445210   0.0000000), wk =   0.0219780
        k(   15) = (   0.3110287   0.1556380   0.0000000), wk =   0.0219780
        k(   16) = (   0.3332450   0.1667550   0.0000000), wk =   0.0219780
        k(   17) = (   0.3554613   0.1778720   0.0000000), wk =   0.0219780
        k(   18) = (   0.3776777   0.1889890   0.0000000), wk =   0.0219780
        k(   19) = (   0.3998940   0.2001060   0.0000000), wk =   0.0219780
        k(   20) = (   0.4221103   0.2112230   0.0000000), wk =   0.0219780
        k(   21) = (   0.4443267   0.2223400   0.0000000), wk =   0.0219780
        k(   22) = (   0.4665430   0.2334570   0.0000000), wk =   0.0219780
        k(   23) = (   0.4887593   0.2445740   0.0000000), wk =   0.0219780
        k(   24) = (   0.5109757   0.2556910   0.0000000), wk =   0.0219780
        k(   25) = (   0.5331920   0.2668080   0.0000000), wk =   0.0219780
        k(   26) = (   0.5554083   0.2779250   0.0000000), wk =   0.0219780
        k(   27) = (   0.5776247   0.2890420   0.0000000), wk =   0.0219780
        k(   28) = (   0.5998410   0.3001590   0.0000000), wk =   0.0219780
        k(   29) = (   0.6220573   0.3112760   0.0000000), wk =   0.0219780
        k(   30) = (   0.6442737   0.3223930   0.0000000), wk =   0.0219780
        k(   31) = (   0.6664900   0.3335100   0.0000000), wk =   0.0219780
        k(   32) = (   0.6609403   0.3390597   0.0000000), wk =   0.0219780
        k(   33) = (   0.6553907   0.3446093   0.0000000), wk =   0.0219780
        k(   34) = (   0.6498410   0.3501590   0.0000000), wk =   0.0219780
        k(   35) = (   0.6442913   0.3557087   0.0000000), wk =   0.0219780
        k(   36) = (   0.6387417   0.3612583   0.0000000), wk =   0.0219780
        k(   37) = (   0.6331920   0.3668080   0.0000000), wk =   0.0219780
        k(   38) = (   0.6276423   0.3723577   0.0000000), wk =   0.0219780
        k(   39) = (   0.6220927   0.3779073   0.0000000), wk =   0.0219780
        k(   40) = (   0.6165430   0.3834570   0.0000000), wk =   0.0219780
        k(   41) = (   0.6109933   0.3890067   0.0000000), wk =   0.0219780
        k(   42) = (   0.6054437   0.3945563   0.0000000), wk =   0.0219780
        k(   43) = (   0.5998940   0.4001060   0.0000000), wk =   0.0219780
        k(   44) = (   0.5943443   0.4056557   0.0000000), wk =   0.0219780
        k(   45) = (   0.5887947   0.4112053   0.0000000), wk =   0.0219780
        k(   46) = (   0.5832450   0.4167550   0.0000000), wk =   0.0219780
        k(   47) = (   0.5776953   0.4223047   0.0000000), wk =   0.0219780
        k(   48) = (   0.5721457   0.4278543   0.0000000), wk =   0.0219780
        k(   49) = (   0.5665960   0.4334040   0.0000000), wk =   0.0219780
        k(   50) = (   0.5610463   0.4389537   0.0000000), wk =   0.0219780
        k(   51) = (   0.5554967   0.4445033   0.0000000), wk =   0.0219780
        k(   52) = (   0.5499470   0.4500530   0.0000000), wk =   0.0219780
        k(   53) = (   0.5443973   0.4556027   0.0000000), wk =   0.0219780
        k(   54) = (   0.5388477   0.4611523   0.0000000), wk =   0.0219780
        k(   55) = (   0.5332980   0.4667020   0.0000000), wk =   0.0219780
        k(   56) = (   0.5277483   0.4722517   0.0000000), wk =   0.0219780
        k(   57) = (   0.5221987   0.4778013   0.0000000), wk =   0.0219780
        k(   58) = (   0.5166490   0.4833510   0.0000000), wk =   0.0219780
        k(   59) = (   0.5110993   0.4889007   0.0000000), wk =   0.0219780
        k(   60) = (   0.5055497   0.4944503   0.0000000), wk =   0.0219780
        k(   61) = (   0.5000000   0.5000000   0.0000000), wk =   0.0219780
        k(   62) = (   0.4833333   0.4833333   0.0000000), wk =   0.0219780
        k(   63) = (   0.4666667   0.4666667   0.0000000), wk =   0.0219780
        k(   64) = (   0.4500000   0.4500000   0.0000000), wk =   0.0219780
        k(   65) = (   0.4333333   0.4333333   0.0000000), wk =   0.0219780
        k(   66) = (   0.4166667   0.4166667   0.0000000), wk =   0.0219780
        k(   67) = (   0.4000000   0.4000000   0.0000000), wk =   0.0219780
        k(   68) = (   0.3833333   0.3833333   0.0000000), wk =   0.0219780
        k(   69) = (   0.3666667   0.3666667   0.0000000), wk =   0.0219780
        k(   70) = (   0.3500000   0.3500000   0.0000000), wk =   0.0219780
        k(   71) = (   0.3333333   0.3333333   0.0000000), wk =   0.0219780
        k(   72) = (   0.3166667   0.3166667   0.0000000), wk =   0.0219780
        k(   73) = (   0.3000000   0.3000000   0.0000000), wk =   0.0219780
        k(   74) = (   0.2833333   0.2833333   0.0000000), wk =   0.0219780
        k(   75) = (   0.2666667   0.2666667   0.0000000), wk =   0.0219780
        k(   76) = (   0.2500000   0.2500000   0.0000000), wk =   0.0219780
        k(   77) = (   0.2333333   0.2333333   0.0000000), wk =   0.0219780
        k(   78) = (   0.2166667   0.2166667   0.0000000), wk =   0.0219780
        k(   79) = (   0.2000000   0.2000000   0.0000000), wk =   0.0219780
        k(   80) = (   0.1833333   0.1833333   0.0000000), wk =   0.0219780
        k(   81) = (   0.1666667   0.1666667   0.0000000), wk =   0.0219780
        k(   82) = (   0.1500000   0.1500000   0.0000000), wk =   0.0219780
        k(   83) = (   0.1333333   0.1333333   0.0000000), wk =   0.0219780
        k(   84) = (   0.1166667   0.1166667   0.0000000), wk =   0.0219780
        k(   85) = (   0.1000000   0.1000000   0.0000000), wk =   0.0219780
        k(   86) = (   0.0833333   0.0833333   0.0000000), wk =   0.0219780
        k(   87) = (   0.0666667   0.0666667   0.0000000), wk =   0.0219780
        k(   88) = (   0.0500000   0.0500000   0.0000000), wk =   0.0219780
        k(   89) = (   0.0333333   0.0333333   0.0000000), wk =   0.0219780
        k(   90) = (   0.0166667   0.0166667   0.0000000), wk =   0.0219780
        k(   91) = (   0.0000000   0.0000000   0.0000000), wk =   0.0219780

     Dense  grid:    80843 G-vectors     FFT dimensions: (  27,  27, 240)

     Dynamical RAM for                 wfc:       0.28 MB

     Dynamical RAM for     wfc (w. buffer):       0.28 MB

     Dynamical RAM for           str. fact:       0.11 MB

     Dynamical RAM for           local pot:       0.00 MB

     Dynamical RAM for          nlocal pot:       0.36 MB

     Dynamical RAM for                qrad:       2.49 MB

     Dynamical RAM for          rho,v,vnew:       0.35 MB

     Dynamical RAM for           G-vectors:       0.24 MB

     Dynamical RAM for          h,s,v(r/c):       0.29 MB

     Dynamical RAM for          <psi|beta>:       0.03 MB

     Dynamical RAM for                 psi:       0.56 MB

     Dynamical RAM for                hpsi:       0.56 MB

     Dynamical RAM for                spsi:       0.56 MB

     Dynamical RAM for      wfcinit/wfcrot:       0.60 MB

     Dynamical RAM for           addusdens:      10.51 MB

     Estimated static dynamical RAM per process >       4.31 MB

     Estimated max dynamical RAM per process >      14.82 MB

     Estimated total dynamical RAM >     326.05 MB

     Check: negative core charge=   -0.000003

     The potential is recalculated from file :
     ./work/Al2O2.save/charge-density


     negative rho (up, down):  1.882E-03 0.000E+00
     Starting wfcs are   16 randomized atomic wfcs +   24 random wfcs
     Checking if some PAW data can be deallocated... 
       PAW data deallocated on   11 nodes for type:  1
       PAW data deallocated on   11 nodes for type:  2

     Band Structure Calculation
     Davidson diagonalization with overlap

     Computing kpt #:     1  of    91
     total cpu time spent up to now is        1.6 secs

     Computing kpt #:     2  of    91
     total cpu time spent up to now is        2.8 secs

     Computing kpt #:     3  of    91
     total cpu time spent up to now is        4.1 secs

     Computing kpt #:     4  of    91
     total cpu time spent up to now is        5.3 secs

     Computing kpt #:     5  of    91
     total cpu time spent up to now is        6.5 secs

     Computing kpt #:     6  of    91
     total cpu time spent up to now is        7.7 secs

     Computing kpt #:     7  of    91
     total cpu time spent up to now is        8.9 secs

     Computing kpt #:     8  of    91
     total cpu time spent up to now is       10.2 secs

     Computing kpt #:     9  of    91
     total cpu time spent up to now is       11.6 secs

     Computing kpt #:    10  of    91
     total cpu time spent up to now is       13.1 secs

     Computing kpt #:    11  of    91
     total cpu time spent up to now is       14.5 secs

     Computing kpt #:    12  of    91
     total cpu time spent up to now is       16.1 secs

     Computing kpt #:    13  of    91
     total cpu time spent up to now is       17.5 secs

     Computing kpt #:    14  of    91
     total cpu time spent up to now is       18.9 secs

     Computing kpt #:    15  of    91
     total cpu time spent up to now is       20.3 secs

     Computing kpt #:    16  of    91
     total cpu time spent up to now is       21.8 secs

     Computing kpt #:    17  of    91
     total cpu time spent up to now is       23.4 secs

     Computing kpt #:    18  of    91
     total cpu time spent up to now is       25.1 secs

     Computing kpt #:    19  of    91
     total cpu time spent up to now is       26.8 secs

     Computing kpt #:    20  of    91
     total cpu time spent up to now is       28.3 secs

     Computing kpt #:    21  of    91
     total cpu time spent up to now is       29.7 secs

     Computing kpt #:    22  of    91
     total cpu time spent up to now is       31.2 secs

     Computing kpt #:    23  of    91
     total cpu time spent up to now is       32.8 secs

     Computing kpt #:    24  of    91
     total cpu time spent up to now is       34.3 secs

     Computing kpt #:    25  of    91
     total cpu time spent up to now is       35.7 secs

     Computing kpt #:    26  of    91
     total cpu time spent up to now is       37.1 secs

     Computing kpt #:    27  of    91
     total cpu time spent up to now is       38.7 secs

     Computing kpt #:    28  of    91
     total cpu time spent up to now is       40.2 secs

     Computing kpt #:    29  of    91
     total cpu time spent up to now is       41.5 secs

     Computing kpt #:    30  of    91
     total cpu time spent up to now is       42.9 secs

     Computing kpt #:    31  of    91
     total cpu time spent up to now is       44.2 secs

     Computing kpt #:    32  of    91
     total cpu time spent up to now is       45.5 secs

     Computing kpt #:    33  of    91
     total cpu time spent up to now is       46.8 secs

     Computing kpt #:    34  of    91
     total cpu time spent up to now is       48.1 secs

     Computing kpt #:    35  of    91
     total cpu time spent up to now is       49.4 secs

     Computing kpt #:    36  of    91
     total cpu time spent up to now is       50.8 secs

     Computing kpt #:    37  of    91
     total cpu time spent up to now is       52.2 secs

     Computing kpt #:    38  of    91
     total cpu time spent up to now is       53.6 secs

     Computing kpt #:    39  of    91
     total cpu time spent up to now is       55.1 secs

     Computing kpt #:    40  of    91
     total cpu time spent up to now is       56.6 secs

     Computing kpt #:    41  of    91
     total cpu time spent up to now is       58.1 secs

     Computing kpt #:    42  of    91
     c_bands:  1 eigenvalues not converged
     total cpu time spent up to now is       59.8 secs

     Computing kpt #:    43  of    91
     total cpu time spent up to now is       61.2 secs

     Computing kpt #:    44  of    91
     total cpu time spent up to now is       62.6 secs

     Computing kpt #:    45  of    91
     total cpu time spent up to now is       64.0 secs

     Computing kpt #:    46  of    91
     total cpu time spent up to now is       65.4 secs

     Computing kpt #:    47  of    91
     total cpu time spent up to now is       66.9 secs

     Computing kpt #:    48  of    91
     total cpu time spent up to now is       68.3 secs

     Computing kpt #:    49  of    91
     total cpu time spent up to now is       69.7 secs

     Computing kpt #:    50  of    91
     total cpu time spent up to now is       71.1 secs

     Computing kpt #:    51  of    91
     total cpu time spent up to now is       72.5 secs

     Computing kpt #:    52  of    91
     total cpu time spent up to now is       74.1 secs

     Computing kpt #:    53  of    91
     total cpu time spent up to now is       75.6 secs

     Computing kpt #:    54  of    91
     total cpu time spent up to now is       77.0 secs

     Computing kpt #:    55  of    91
     total cpu time spent up to now is       78.4 secs

     Computing kpt #:    56  of    91
     total cpu time spent up to now is       79.8 secs

     Computing kpt #:    57  of    91
     total cpu time spent up to now is       81.2 secs

     Computing kpt #:    58  of    91
     total cpu time spent up to now is       82.7 secs

     Computing kpt #:    59  of    91
     total cpu time spent up to now is       84.1 secs

     Computing kpt #:    60  of    91
     total cpu time spent up to now is       85.5 secs

     Computing kpt #:    61  of    91
     total cpu time spent up to now is       86.9 secs

     Computing kpt #:    62  of    91
     total cpu time spent up to now is       88.2 secs

     Computing kpt #:    63  of    91
     total cpu time spent up to now is       89.7 secs

     Computing kpt #:    64  of    91
     total cpu time spent up to now is       91.0 secs

     Computing kpt #:    65  of    91
     total cpu time spent up to now is       92.4 secs

     Computing kpt #:    66  of    91
     total cpu time spent up to now is       93.8 secs

     Computing kpt #:    67  of    91
     total cpu time spent up to now is       95.1 secs

     Computing kpt #:    68  of    91
     total cpu time spent up to now is       96.4 secs

     Computing kpt #:    69  of    91
     total cpu time spent up to now is       97.7 secs

     Computing kpt #:    70  of    91
     total cpu time spent up to now is       99.1 secs

     Computing kpt #:    71  of    91
     total cpu time spent up to now is      100.5 secs

     Computing kpt #:    72  of    91
     total cpu time spent up to now is      101.8 secs

     Computing kpt #:    73  of    91
     total cpu time spent up to now is      103.0 secs

     Computing kpt #:    74  of    91
     total cpu time spent up to now is      104.3 secs

     Computing kpt #:    75  of    91
     total cpu time spent up to now is      105.5 secs

     Computing kpt #:    76  of    91
     total cpu time spent up to now is      106.8 secs

     Computing kpt #:    77  of    91
     total cpu time spent up to now is      108.1 secs

     Computing kpt #:    78  of    91
     total cpu time spent up to now is      109.5 secs

     Computing kpt #:    79  of    91
     total cpu time spent up to now is      110.8 secs

     Computing kpt #:    80  of    91
     total cpu time spent up to now is      112.1 secs

     Computing kpt #:    81  of    91
     total cpu time spent up to now is      113.3 secs

     Computing kpt #:    82  of    91
     total cpu time spent up to now is      114.7 secs

     Computing kpt #:    83  of    91
     total cpu time spent up to now is      115.9 secs

     Computing kpt #:    84  of    91
     total cpu time spent up to now is      117.2 secs

     Computing kpt #:    85  of    91
     total cpu time spent up to now is      118.4 secs

     Computing kpt #:    86  of    91
     total cpu time spent up to now is      119.7 secs

     Computing kpt #:    87  of    91
     total cpu time spent up to now is      120.9 secs

     Computing kpt #:    88  of    91
     total cpu time spent up to now is      122.2 secs

     Computing kpt #:    89  of    91
     total cpu time spent up to now is      123.5 secs

     Computing kpt #:    90  of    91
     total cpu time spent up to now is      124.7 secs

     Computing kpt #:    91  of    91
     total cpu time spent up to now is      125.9 secs

     ethr =  5.56E-11,  avg # of iterations = 62.5

     total cpu time spent up to now is      125.9 secs

     End of band structure calculation

          k = 0.0000 0.0000 0.0000 (  9961 PWs)   bands (ev):

   -22.4279 -22.3636  -9.3490  -7.2414  -6.3901  -6.3823  -6.3694  -6.3616
    -4.2512  -0.1783   1.9806   2.7856   2.8121   3.4214   3.6941   4.6502
     5.2832   6.6552   6.6773   8.3297   8.6432   8.6633   9.2296   9.9895
    10.0107  11.1341  11.2441  12.1954  12.2218  13.1033  14.6562  15.6313
    15.6446  15.7942  16.0272  16.5201  16.5438  17.6838  18.9813  19.2900

          k = 0.0193 0.0111 0.0000 (  9979 PWs)   bands (ev):

   -22.4250 -22.3608  -9.3441  -7.2381  -6.4043  -6.3900  -6.3827  -6.3692
    -4.2411  -0.1591   1.9914   2.7933   2.8212   3.4316   3.7013   4.6589
     5.2885   6.6591   6.6835   8.3383   8.5612   8.6453   9.2560   9.9674
    10.0075  11.1821  11.2526  12.1459  12.1998  13.1377  14.6668  15.5720
    15.6652  15.8789  16.0506  16.4994  16.5287  17.7167  19.0079  19.2728

          k = 0.0385 0.0222 0.0000 (  9991 PWs)   bands (ev):

   -22.4163 -22.3524  -9.3297  -7.2285  -6.4594  -6.4354  -6.3987  -6.3777
    -4.2119  -0.1027   2.0233   2.8165   2.8482   3.4622   3.7231   4.6847
     5.3045   6.6708   6.7017   8.3228   8.3640   8.6310   9.3058   9.8662
    10.0372  11.2779  11.2949  11.9910  12.1831  13.2223  14.6949  15.4513
    15.7280  16.0723  16.0884  16.4330  16.5245  17.8118  19.0779  19.2256

          k = 0.0578 0.0333 0.0000 (  9991 PWs)   bands (ev):

   -22.4019 -22.3385  -9.3059  -7.2128  -6.5475  -6.5209  -6.4124  -6.3910
    -4.1665  -0.0115   2.0754   2.8549   2.8931   3.5129   3.7593   4.7273
     5.3308   6.6905   6.7291   8.0084   8.4067   8.6009   9.3555   9.7082
    10.0887  11.3192  11.3754  11.8517  12.1583  13.3356  14.7311  15.3268
    15.7956  16.0500  16.3194  16.3464  16.6334  17.9654  19.1615  19.1662

          k = 0.0770 0.0444 0.0000 (  9993 PWs)   bands (ev):

   -22.3819 -22.3193  -9.2735  -7.1925  -6.6618  -6.6336  -6.4316  -6.4097
    -4.1090   0.1107   2.1461   2.9083   2.9557   3.5832   3.8095   4.7863
     5.3670   6.7185   6.7577   7.6639   8.4661   8.5438   9.4053   9.5096
    10.1599  11.2945  11.3757  11.8456  12.1381  13.4712  14.7639  15.2264
    15.8678  15.9118  16.1779  16.6610  16.8732  18.1834  19.0952  19.2443

          k = 0.0963 0.0555 0.0000 ( 10003 PWs)   bands (ev):

   -22.3566 -22.2949  -9.2331  -7.1705  -6.7956  -6.7657  -6.4566  -6.4339
    -4.0429   0.2595   2.2335   2.9762   3.0356   3.6724   3.8735   4.8605
     5.4126   6.7554   6.7572   7.3412   8.4476   8.5414   9.2856   9.4599
    10.2494  11.1232  11.4470  11.8576  12.1732  13.6241  14.7808  15.1720
    15.7031  15.9494  16.0414  16.9747  17.1972  18.4776  19.0366  19.2872

          k = 0.1155 0.0665 0.0000 ( 10017 PWs)   bands (ev):

   -22.3262 -22.2656  -9.1862  -7.1597  -6.9421  -6.8998  -6.4877  -6.4639
    -3.9712   0.4304   2.3357   3.0580   3.1324   3.7790   3.9508   4.9472
     5.4669   6.6250   6.8017   7.1564   8.3046   8.6312   9.0505   9.5229
    10.3552  10.9554  11.5326  11.7992  12.2734  13.7844  14.7670  15.1739
    15.4404  15.9429  16.0435  17.2641  17.5747  18.8500  18.9875  19.2693

          k = 0.1348 0.0776 0.0000 ( 10027 PWs)   bands (ev):

   -22.2911 -22.2318  -9.1347  -7.2110  -7.0947  -6.9802  -6.5252  -6.5000
    -3.8963   0.6189   2.4508   3.1528   3.2456   3.9010   4.0410   5.0403
     5.5293   6.3336   6.8580   7.1465   8.1188   8.7143   8.8358   9.5950
    10.4744  10.8074  11.6322  11.7216  12.3902  13.9424  14.7056  15.1474
    15.2264  15.9008  16.1517  17.5273  17.9845  18.9400  19.1170  19.3247

          k = 0.1540 0.0887 0.0000 ( 10035 PWs)   bands (ev):

   -22.2515 -22.1937  -9.0813  -7.3538  -7.2463  -6.9735  -6.5693  -6.5422
    -3.8195   0.8210   2.5768   3.2594   3.3748   4.0343   4.1434   5.1216
     5.5995   6.0180   6.9243   7.1860   7.9149   8.5599   8.8812   9.6713
    10.6031  10.6684  11.6719  11.7451  12.5057  14.0949  14.5612  14.8771
    15.3100  15.9179  16.2748  17.7713  18.4052  18.8729  18.8892  19.3784

          k = 0.1733 0.0998 0.0000 ( 10049 PWs)   bands (ev):

   -22.2080 -22.1518  -9.0304  -7.5311  -7.3892  -6.9330  -6.6204  -6.5908
    -3.7420   1.0332   2.7120   3.3763   3.5193   4.1699   4.2579   5.1327
     5.6774   5.7916   7.0001   7.1776   7.7599   8.3463   9.0164   9.7370
    10.5341  10.7364  11.6776  11.8707  12.6176  14.2453  14.2846  14.7047
    15.3990  15.9854  16.4127  17.9808  18.5702  18.6938  18.8194  18.8849

          k = 0.1925 0.1109 0.0000 ( 10063 PWs)   bands (ev):

   -22.1611 -22.1066  -8.9879  -7.7177  -7.5147  -6.8809  -6.6787  -6.6456
    -3.6641   1.2525   2.8541   3.5016   3.6775   4.2801   4.3841   5.0083
     5.7598   5.7634   7.0330   7.0825   7.7463   8.1534   9.1702   9.7550
    10.4361  10.8674  11.7446  12.0086  12.7266  13.9310  14.3987  14.6011
    15.4712  16.0911  16.5632  17.9431  18.3137  18.3883  18.4379  18.5381

          k = 0.2118 0.1220 0.0000 ( 10066 PWs)   bands (ev):

   -22.1112 -22.0586  -8.9613  -7.9055  -7.6127  -6.8247  -6.7445  -6.7050
    -3.5864   1.4759   2.9993   3.6331   3.8444   4.2787   4.5225   4.9007
     5.8584   5.8645   6.7911   7.1635   7.8461   7.9967   9.3396   9.6772
    10.4295  10.9884  11.8644  12.1582  12.8329  13.5543  14.5340  14.5590
    15.5111  16.2228  16.7195  17.5499  17.8028  17.9931  18.0297  18.3018

          k = 0.2310 0.1331 0.0000 ( 10075 PWs)   bands (ev):

   -22.0589 -22.0083  -8.9588  -8.0901  -7.6734  -6.8179  -6.7983  -6.7373
    -3.5088   1.7009   3.1393   3.7682   3.9558   4.1621   4.6739   4.9672
     5.9634   6.0112   6.5340   7.2247   7.8990   7.9978   9.5126   9.5238
    10.5152  11.0905  12.0243  12.3184  12.9361  13.1742  14.4994  14.7270
    15.5096  16.3636  16.8398  17.1202  17.3236  17.5305  17.5594  17.7591

          k = 0.2503 0.1442 0.0000 ( 10099 PWs)   bands (ev):

   -22.0050 -21.9564  -8.9849  -8.2682  -7.6907  -6.8990  -6.8627  -6.6829
    -3.4314   1.9248   3.2431   3.7832   3.9048   4.2899   4.8397   5.1308
     6.0763   6.0789   6.3899   7.2410   7.8890   8.1777   9.3085   9.7220
    10.6547  11.1655  12.2129  12.4740  12.8159  13.0343  14.4950  14.8990
    15.4645  16.4462  16.5522  16.9405  16.9792  17.0737  17.1314  17.2475

          k = 0.2695 0.1553 0.0000 ( 10103 PWs)   bands (ev):

   -21.9500 -21.9035  -9.0377  -8.4374  -7.6653  -6.9878  -6.9448  -6.6160
    -3.3539   2.1448   3.1886   3.6735   4.0418   4.5015   5.0216   5.3245
     5.9079   6.2037   6.5247   7.2126   7.9702   8.3760   9.0966   9.9328
    10.8239  11.2075  12.3665  12.4202  12.7456  13.1247  14.5099  15.0515
    15.3954  16.0872  16.2389  16.5594  16.5806  16.6900  16.8805  17.0470

          k = 0.2888 0.1664 0.0000 ( 10109 PWs)   bands (ev):

   -21.8946 -21.8504  -9.1096  -8.5954  -7.6043  -7.0843  -7.0350  -6.5470
    -3.2760   2.3576   2.9373   3.7400   4.1797   4.7329   5.2212   5.4808
     5.7605   6.3324   6.7456   7.1739   8.1149   8.5767   8.9042  10.1532
    11.0116  11.2137  12.0287  12.6370  12.9382  13.2021  14.5180  15.0680
    15.4153  15.6306  15.8830  16.0917  16.1089  16.1891  16.7440  16.7570

          k = 0.3080 0.1774 0.0000 ( 10113 PWs)   bands (ev):

   -21.8396 -21.7975  -9.1911  -8.7402  -7.5170  -7.1880  -7.1324  -6.4778
    -3.1972   2.5598   2.6320   3.8380   4.3213   4.9712   5.4309   5.4390
     5.8802   6.4520   6.9926   7.1616   8.2988   8.6192   8.8980  10.3752
    11.1848  11.2112  11.7031  12.8539  13.1622  13.2583  14.4714  14.9095
    15.1730  15.5366  15.5790  15.6515  15.6800  15.7044  16.3463  16.4577

          k = 0.3273 0.1885 0.0000 ( 10121 PWs)   bands (ev):

   -21.7857 -21.7457  -9.2738  -8.8704  -7.4125  -7.2980  -7.2362  -6.4096
    -3.1166   2.3197   2.7481   3.9015   4.4709   5.1619   5.4056   5.6739
     6.1194   6.5419   7.2077   7.2568   8.4623   8.5086   9.1232  10.5674
    11.1310  11.4169  11.4307  13.0600  13.2817  13.3990  14.3229  14.6367
    14.8147  15.1352  15.1913  15.2448  15.3815  15.7995  15.9732  16.1425

          k = 0.3465 0.1996 0.0000 ( 10127 PWs)   bands (ev):

   -21.7336 -21.6956  -9.3515  -8.9844  -7.4182  -7.3461  -7.2934  -6.3434
    -3.0334   2.0119   2.9197   3.8981   4.6335   5.2188   5.6077   5.9219
     6.3852   6.5923   7.3285   7.5349   8.3029   8.7359   9.3859  10.6158
    11.1055  11.2829  11.6208  13.2200  13.2811  13.6210  14.1016  14.2532
    14.5350  14.7043  14.7630  14.8821  15.1058  15.6041  15.8250  15.8854

          k = 0.3658 0.2107 0.0000 ( 10137 PWs)   bands (ev):

   -21.6838 -21.6478  -9.4196  -9.0811  -7.5409  -7.4614  -7.1724  -6.2801
    -2.9463   1.7127   3.0733   3.8226   4.8128   5.2964   5.8951   6.1690
     6.6274   6.6659   7.5120   7.8223   8.1661   8.9714   9.6666  10.4669
    11.0228  11.4112  11.8091  13.1707  13.3913  13.6276  13.8803  14.0504
    14.1873  14.2819  14.3361  14.6811  14.7759  15.2056  15.4929  15.6160

          k = 0.3850 0.2218 0.0000 ( 10145 PWs)   bands (ev):

   -21.6371 -21.6030  -9.4747  -9.1594  -7.6696  -7.5815  -7.0499  -6.2206
    -2.8541   1.4244   3.2094   3.6966   5.0103   5.4312   6.2094   6.3622
     6.7177   6.9571   7.7361   8.0081   8.1679   9.1959   9.9618  10.2774
    10.8905  11.6736  11.9541  13.0729  13.3261  13.3555  13.6738  13.8058
    13.8716  13.9448  14.2157  14.4783  14.5354  14.8120  15.1023  15.3918

          k = 0.4043 0.2329 0.0000 ( 10159 PWs)   bands (ev):

   -21.5941 -21.5617  -9.5145  -9.2185  -7.8029  -7.7056  -6.9306  -6.1656
    -2.7556   1.1484   3.3303   3.5453   5.2245   5.6036   6.4351   6.5425
     6.9395   7.2521   7.9413   7.9832   8.4667   9.3595  10.1680  10.2695
    10.7403  11.9714  12.0096  12.9503  13.0485  13.0607  13.4386  13.4712
    13.4795  13.8072  14.0005  14.3540  14.4252  14.6066  14.7194  15.2632

          k = 0.4235 0.2440 0.0000 ( 10159 PWs)   bands (ev):

   -21.5551 -21.5242  -9.5374  -9.2578  -7.9398  -7.8329  -6.8179  -6.1159
    -2.6497   0.8862   3.3860   3.4389   5.4516   5.7950   6.4462   6.8912
     7.2376   7.5238   7.9167   8.2356   8.7958   9.3931  10.2382  10.5732
    10.5869  11.9445  12.2675  12.6340  12.7634  12.9194  13.0968  13.1069
    13.2216  13.6662  13.8445  14.0649  14.1333  14.3702  14.8180  15.1837

          k = 0.4428 0.2551 0.0000 ( 10153 PWs)   bands (ev):

   -21.5206 -21.4911  -9.5422  -9.2770  -8.0795  -7.9626  -6.7150  -6.0718
    -2.5360   0.6393   3.2285   3.5382   5.6855   5.9914   6.4425   7.2505
     7.5627   7.6711   8.0562   8.4631   9.1392   9.3601  10.3876  10.4646
    10.9063  11.7928  12.2953  12.3418  12.6203  12.6595  12.7393  12.8103
    13.2318  13.3481  13.7223  13.7923  13.9126  14.1331  14.8070  15.1003

          k = 0.4620 0.2662 0.0000 ( 10135 PWs)   bands (ev):

   -21.4909 -21.4625  -9.5282  -9.2758  -8.2210  -8.0939  -6.6242  -6.0339
    -2.4153   0.4100   3.0788   3.6300   5.9177   6.1813   6.4374   7.5700
     7.7543   7.8901   8.3511   8.6158   9.4085   9.4950  10.1934  10.7532
    11.1880  11.6371  11.9710  12.1009  12.2904  12.3864  12.3970  12.9148
    13.1564  13.2034  13.4212  13.5478  13.8182  14.0562  14.5881  14.9948

          k = 0.4813 0.2773 0.0000 ( 10133 PWs)   bands (ev):

   -21.4660 -21.4387  -9.4952  -9.2545  -8.3632  -8.2258  -6.5474  -6.0022
    -2.2899   0.2010   2.9408   3.7149   6.1349   6.3539   6.4384   7.6560
     8.0762   8.1705   8.6918   8.7151   9.6002   9.8624   9.9930  11.0586
    11.2169  11.6155  11.7523  11.8432  11.9831  12.0743  12.0793  12.6966
    13.0368  13.0489  13.2414  13.5098  13.8775  13.9953  14.3412  14.7732

          k = 0.5005 0.2883 0.0000 ( 10139 PWs)   bands (ev):

   -21.4462 -21.4196  -9.4432  -9.2133  -8.5051  -8.3574  -6.4856  -5.9770
    -2.1648   0.0166   2.8179   3.7919   6.3044   6.4671   6.4991   7.6904
     8.3052   8.4796   8.9243   9.0510   9.7550   9.9249  10.2396  11.0307
    11.2869  11.3461  11.6329  11.6357  11.7582  11.8182  12.0925  12.4420
    12.7808  12.8179  12.9415  13.8217  13.8374  14.0240  14.1413  14.4952

          k = 0.5198 0.2994 0.0000 ( 10129 PWs)   bands (ev):

   -21.4312 -21.4052  -9.3725  -9.1528  -8.6456  -8.4879  -6.4391  -5.9579
    -2.0480  -0.1372   2.7136   3.8586   6.3691   6.5676   6.6100   7.7345
     8.3317   8.9018   9.2544   9.4217   9.5879  10.2388  10.6152  10.8224
    11.0715  11.2065  11.3542  11.4302  11.4827  11.8379  12.2432  12.3650
    12.5496  12.6345  12.6766  13.6949  13.7822  14.0603  14.1613  14.4139

          k = 0.5390 0.3105 0.0000 ( 10123 PWs)   bands (ev):

   -21.4209 -21.3953  -9.2842  -9.0738  -8.7837  -8.6163  -6.4074  -5.9449
    -1.9511  -0.2526   2.6319   3.9113   6.3830   6.6732   6.6847   7.7837
     8.3494   9.3338   9.3657   9.6994   9.7987  10.5590  10.5977  10.7784
    11.0048  11.0295  11.0885  11.1917  11.2489  11.8062  12.1470  12.2821
    12.3905  12.5265  12.8731  13.5511  13.5763  13.9484  13.9601  14.3289

          k = 0.5583 0.3216 0.0000 ( 10123 PWs)   bands (ev):

   -21.4150 -21.3897  -9.1801  -8.9777  -8.9174  -8.7416  -6.3895  -5.9375
    -1.8870  -0.3221   2.5781   3.9459   6.3891   6.7260   6.7356   7.8239
     8.3787   9.2510   9.7621  10.0986  10.1521  10.4300  10.5431  10.6566
    10.8388  10.8550  10.9671  11.1191  11.4747  11.6403  11.9776  12.0689
    12.1564  12.7830  13.2098  13.3907  13.4432  13.7373  13.7672  14.2317

          k = 0.5775 0.3327 0.0000 ( 10139 PWs)   bands (ev):

   -21.4132 -21.3879  -9.0870  -9.0203  -8.8774  -8.8515  -6.3839  -5.9352
    -1.8654  -0.3437   2.5584   3.9583   6.3921   6.7389   6.7537   7.8404
     8.3958   9.2032  10.0444  10.2663  10.3106  10.3964  10.5525  10.5645
    10.6695  10.7018  10.8062  11.2440  11.5603  11.8227  11.8605  11.8749
    11.9810  12.9461  13.3218  13.3795  13.4577  13.6119  13.6121  14.1739

          k = 0.5775 0.3216 0.0000 ( 10129 PWs)   bands (ev):

   -21.4136 -21.3883  -9.1258  -8.9791  -8.9253  -8.8013  -6.3852  -5.9357
    -1.8702  -0.3395   2.5639   3.9549   6.3906   6.7358   6.7504   7.8353
     8.3903   9.2160   9.9954  10.1754  10.3376  10.3963  10.5044  10.5381
    10.6489  10.8016  10.9159  11.2180  11.5481  11.7363  11.8318  11.9143
    12.1152  12.9146  13.3041  13.3794  13.4050  13.6484  13.6679  14.1996

          k = 0.5775 0.3105 0.0000 ( 10125 PWs)   bands (ev):

   -21.4148 -21.3895  -9.1846  -8.9826  -8.9132  -8.7371  -6.3888  -5.9372
    -1.8848  -0.3275   2.5807   3.9449   6.3855   6.7269   6.7420   7.8216
     8.3769   9.2499   9.9093  10.0669  10.2469  10.3490  10.4091  10.5176
    10.7328  10.9347  11.1184  11.2004  11.5059  11.6324  11.7455  12.0507
    12.3198  12.8515  13.2474  13.2996  13.4017  13.6759  13.8092  14.2802

          k = 0.5775 0.2994 0.0000 ( 10123 PWs)   bands (ev):

   -21.4168 -21.3914  -9.2446  -9.0392  -8.8417  -8.6692  -6.3946  -5.9397
    -1.9077  -0.3101   2.6097   3.9284   6.3747   6.7125   6.7312   7.7993
     8.3589   9.2994   9.8153   9.9608  10.1557  10.2555  10.3093  10.4391
    10.9203  10.9472  11.2603  11.3384  11.4940  11.5306  11.6637  12.2136
    12.5305  12.7873  13.1779  13.1982  13.4136  13.6867  13.9846  14.3950

          k = 0.5775 0.2883 0.0000 ( 10121 PWs)   bands (ev):

   -21.4195 -21.3940  -9.3037  -9.0945  -8.7666  -8.5985  -6.4024  -5.9431
    -1.9375  -0.2899   2.6516   3.9053   6.3560   6.6927   6.7207   7.7690
     8.3403   9.3575   9.7193   9.8578  10.0703  10.1582  10.2113  10.3566
    10.8852  11.1144  11.2596  11.4307  11.5199  11.6149  11.6412  12.3581
    12.7427  12.7500  13.0971  13.1133  13.4038  13.7182  14.1705  14.5105

          k = 0.5775 0.2773 0.0000 ( 10119 PWs)   bands (ev):

   -21.4228 -21.3972  -9.3616  -9.1484  -8.6887  -8.5251  -6.4119  -5.9473
    -1.9726  -0.2692   2.7071   3.8759   6.3276   6.6677   6.7128   7.7316
     8.3243   9.4162   9.6233   9.7582   9.9954  10.0614  10.1165  10.2762
    10.8079  11.2001  11.2823  11.3347  11.5127  11.8090  11.8467  12.4269
    12.7781  12.9530  12.9993  13.0753  13.3648  13.7880  14.3563  14.5951

          k = 0.5775 0.2662 0.0000 ( 10131 PWs)   bands (ev):

   -21.4267 -21.4009  -9.4179  -9.2009  -8.6084  -8.4494  -6.4228  -5.9521
    -2.0116  -0.2500   2.7765   3.8405   6.2889   6.6376   6.7085   7.6883
     8.3132   9.4654   9.5283   9.6621   9.9379   9.9663  10.0257  10.1992
    10.7292  11.1295  11.2408  11.3230  11.6002  12.0050  12.0973  12.4244
    12.8200  12.8998  13.1236  13.1616  13.3115  13.8876  14.5323  14.6309

          k = 0.5775 0.2551 0.0000 ( 10131 PWs)   bands (ev):

   -21.4311 -21.4052  -9.4726  -9.2517  -8.5259  -8.3718  -6.4350  -5.9576
    -2.0533  -0.2340   2.8599   3.7993   6.2403   6.6023   6.7078   7.6405
     8.3081   9.4350   9.4923   9.5696   9.8731   9.9071   9.9397  10.1258
    10.6538  11.0578  11.1496  11.2693  11.7829  12.1408  12.3583  12.4470
    12.8052  12.8057  13.2242  13.2803  13.3911  14.0025  14.6292  14.6607

          k = 0.5775 0.2440 0.0000 ( 10135 PWs)   bands (ev):

   -21.4359 -21.4098  -9.5256  -9.3009  -8.4417  -8.2925  -6.4483  -5.9636
    -2.0967  -0.2222   2.9572   3.7529   6.1833   6.5622   6.7100   7.5894
     8.3091   9.3439   9.4808   9.4880   9.7823   9.8564   9.9117  10.0560
    10.5845  10.9881  11.0608  11.2021  11.9828  12.1524  12.5529  12.6261
    12.7129  12.7984  13.1575  13.4837  13.5931  14.1146  14.6206  14.6456

          k = 0.5775 0.2329 0.0000 ( 10135 PWs)   bands (ev):

   -21.4411 -21.4148  -9.5767  -9.3484  -8.3562  -8.2120  -6.4624  -5.9700
    -2.1409  -0.2152   3.0680   3.7018   6.1196   6.5173   6.7139   7.5364
     8.3157   9.2554   9.3956   9.4569   9.6941   9.7800   9.9398   9.9897
    10.5245  10.9214  10.9743  11.1347  12.1024  12.1869  12.5960  12.6226
    12.8985  12.9085  13.0878  13.7048  13.7915  14.1955  14.5680  14.6435

          k = 0.5775 0.2218 0.0000 ( 10125 PWs)   bands (ev):

   -21.4465 -21.4200  -9.6260  -9.3941  -8.2697  -8.1307  -6.4772  -5.9768
    -2.1853  -0.2134   3.1914   3.6464   6.0512   6.4680   6.7187   7.4827
     8.3267   9.1697   9.3142   9.4112   9.6087   9.7087   9.9268   9.9768
    10.4782  10.8584  10.8901  11.0700  12.0373  12.3894  12.5374  12.5613
    13.0095  13.1115  13.1857  13.9341  13.9676  14.2297  14.4845  14.7273

          k = 0.5775 0.2107 0.0000 ( 10133 PWs)   bands (ev):

   -21.4522 -21.4255  -9.6732  -9.4379  -8.1826  -8.0488  -6.4924  -5.9838
    -2.2293  -0.2167   3.3266   3.5873   5.9796   6.4148   6.7235   7.4293
     8.3406   9.0870   9.2365   9.3599   9.5263   9.6432   9.8670  10.0075
    10.4517  10.7993  10.8082  11.0086  11.9690  12.4380  12.5101  12.6048
    12.9467  13.3363  13.4674  14.0570  14.1624  14.2874  14.4100  14.8505

          k = 0.5775 0.1996 0.0000 ( 10141 PWs)   bands (ev):

   -21.4580 -21.4311  -9.7184  -9.4798  -8.0954  -7.9669  -6.5080  -5.9910
    -2.2725  -0.2247   3.4725   3.5252   5.9063   6.3583   6.7280   7.3772
     8.3554   9.0076   9.1625   9.3078   9.4470   9.5840   9.8102  10.0212
    10.4505  10.7286  10.7444  10.9507  11.9014  12.3537  12.4563  12.7739
    12.9167  13.5649  13.7542  14.0256  14.2792  14.4194  14.4564  14.7872

          k = 0.5775 0.1885 0.0000 ( 10149 PWs)   bands (ev):

   -21.4639 -21.4368  -9.7614  -9.5198  -8.0084  -7.8854  -6.5237  -5.9983
    -2.3145  -0.2372   3.4606   3.6279   5.8326   6.2995   6.7317   7.3270
     8.3694   8.9316   9.0925   9.2571   9.3710   9.5316   9.7563  10.0156
    10.4750  10.6512  10.6940  10.8963  11.8361  12.2667  12.4033  12.7774
    13.0574  13.7902  13.9420  14.0500  14.2230  14.5513  14.6859  14.7295

          k = 0.5775 0.1774 0.0000 ( 10131 PWs)   bands (ev):

   -21.4698 -21.4425  -9.8023  -9.5578  -7.9222  -7.8046  -6.5394  -6.0056
    -2.3551  -0.2536   3.3942   3.7914   5.7597   6.2394   6.7347   7.2793
     8.3807   8.8590   9.0262   9.2088   9.2984   9.4861   9.7051   9.9960
    10.5187  10.5759  10.6483  10.8450  11.7741  12.1784  12.3524  12.7226
    13.2583  13.8508  13.9937  14.1733  14.3314  14.6541  14.6707  14.9421

          k = 0.5775 0.1664 0.0000 ( 10121 PWs)   bands (ev):

   -21.4756 -21.4481  -9.8410  -9.5937  -7.8371  -7.7252  -6.5550  -6.0129
    -2.3940  -0.2732   3.3266   3.9614   5.6885   6.1794   6.7367   7.2343
     8.3882   8.7898   8.9638   9.1631   9.2291   9.4477   9.6565   9.9695
    10.5023  10.5742  10.6074  10.7965  11.7162  12.0884  12.3040  12.6650
    13.4606  13.7495  14.0388  14.2788  14.5635  14.6185  14.7671  15.2039

          k = 0.5775 0.1553 0.0000 ( 10115 PWs)   bands (ev):

   -21.4814 -21.4537  -9.8773  -9.6274  -7.7538  -7.6476  -6.5704  -6.0200
    -2.4309  -0.2954   3.2586   4.1361   5.6197   6.1213   6.7379   7.1922
     8.3911   8.7240   8.9054   9.1198   9.1632   9.4159   9.6104   9.9414
    10.4303  10.5708  10.6364  10.7504  11.6629  11.9963  12.2584  12.6095
    13.6080  13.6926  13.9819  14.4825  14.5712  14.6374  15.0077  15.3291

          k = 0.5775 0.1442 0.0000 ( 10133 PWs)   bands (ev):

   -21.4870 -21.4592  -9.9114  -9.6591  -7.6726  -7.5722  -6.5854  -6.0270
    -2.4658  -0.3196   3.1908   4.3133   5.5540   6.0672   6.7384   7.1532
     8.3891   8.6615   8.8508   9.0790   9.1006   9.3898   9.5668   9.9146
    10.3593  10.5395  10.7012  10.7064  11.6150  11.9019  12.2158  12.5572
    13.5192  13.8570  13.9182  14.5220  14.6476  14.6959  15.2957  15.3182

          k = 0.5775 0.1331 0.0000 ( 10149 PWs)   bands (ev):

   -21.4925 -21.4644  -9.9431  -9.6885  -7.5942  -7.4996  -6.6000  -6.0338
    -2.4985  -0.3452   3.1240   4.4900   5.4920   6.0198   6.7382   7.1172
     8.3828   8.6020   8.8001   9.0404   9.0412   9.3680   9.5254   9.8907
    10.2888  10.5130  10.6641  10.7668  11.5733  11.8054  12.1763  12.5086
    13.4122  13.8554  14.0139  14.4804  14.6633  14.9014  15.2912  15.6122

          k = 0.5775 0.1220 0.0000 ( 10149 PWs)   bands (ev):

   -21.4976 -21.4694  -9.9725  -9.7157  -7.5189  -7.4304  -6.6141  -6.0402
    -2.5289  -0.3716   3.0589   4.6623   5.4340   5.9829   6.7375   7.0843
     8.3729   8.5453   8.7534   8.9847   9.0043   9.3493   9.4861   9.8704
    10.2183  10.4910  10.6232  10.8310  11.5389  11.7078  12.1397  12.4640
    13.3086  13.7949  14.1237  14.4416  14.7187  15.1016  15.2737  15.9235

          k = 0.5775 0.1109 0.0000 ( 10149 PWs)   bands (ev):

   -21.5025 -21.4741  -9.9993  -9.7407  -7.4475  -7.3649  -6.6276  -6.0462
    -2.5569  -0.3981   2.9963   4.8242   5.3804   5.9622   6.7363   7.0543
     8.3603   8.4908   8.7106   8.9311   8.9707   9.3325   9.4489   9.8537
    10.1471  10.4734  10.5837  10.8916  11.5132  11.6109  12.1061  12.4235
    13.2119  13.7372  14.1753  14.4061  14.8274  15.2586  15.2949  16.2345

          k = 0.5775 0.0998 0.0000 ( 10147 PWs)   bands (ev):

   -21.5071 -21.4785 -10.0238  -9.7634  -7.3803  -7.3038  -6.6404  -6.0518
    -2.5824  -0.4242   2.9370   4.9676   5.3315   5.9650   6.7349   7.0274
     8.3462   8.4379   8.6717   8.8801   8.9397   9.3170   9.4135   9.8401
    10.0750  10.4598  10.5456  10.9461  11.4980  11.5168  12.0756  12.3871
    13.1240  13.6824  14.1848  14.3738  14.9687  15.2521  15.4795  16.5110

          k = 0.5775 0.0887 0.0000 ( 10137 PWs)   bands (ev):

   -21.5112 -21.4825 -10.0457  -9.7837  -7.3180  -7.2475  -6.6525  -6.0570
    -2.6054  -0.4492   2.8815   5.0830   5.2873   6.0002   6.7333   7.0033
     8.3314   8.3858   8.6367   8.8316   8.9116   9.3024   9.3797   9.8292
    10.0022  10.4496  10.5091  10.9916  11.4281  11.4952  12.0479  12.3548
    13.0460  13.6308  14.1736  14.3447  15.0935  15.2823  15.6529  16.4807

          k = 0.5775 0.0776 0.0000 ( 10131 PWs)   bands (ev):

   -21.5150 -21.4862 -10.0651  -9.8017  -7.2610  -7.1965  -6.6639  -6.0617
    -2.6258  -0.4728   2.8307   5.1636   5.2482   6.0730   6.7316   6.9821
     8.3167   8.3333   8.6056   8.7855   8.8864   9.2886   9.3473   9.8204
     9.9296  10.4424  10.4747  11.0260  11.3475  11.5056  12.0231  12.3265
    12.9784  13.5827  14.1545  14.3190  15.1378  15.3993  15.8110  16.4488

          k = 0.5775 0.0665 0.0000 ( 10124 PWs)   bands (ev):

   -21.5183 -21.4894 -10.0819  -9.8174  -7.2099  -7.1512  -6.6744  -6.0658
    -2.6436  -0.4943   2.7852   5.2109   5.2142   6.1801   6.7299   6.9636
     8.2791   8.3029   8.5784   8.7423   8.8644   9.2759   9.3164   9.8132
     9.8592  10.4374  10.4432  11.0488  11.2768  11.5282  12.0011  12.3023
    12.9210  13.5384  14.1336  14.2965  15.1384  15.5587  15.9463  16.4284

          k = 0.5775 0.0555 0.0000 ( 10136 PWs)   bands (ev):

   -21.5212 -21.4921 -10.0962  -9.8307  -7.1652  -7.1122  -6.6840  -6.0693
    -2.6587  -0.5133   2.7455   5.1853   5.2335   6.3100   6.7283   6.9479
     8.2219   8.2903   8.5551   8.7026   8.8457   9.2645   9.2870   9.7939
     9.8073  10.4153  10.4343  11.0618  11.2172  11.5594  11.9817  12.2819
    12.8736  13.4987  14.1139  14.2774  15.1302  15.7202  16.0472  16.4312

          k = 0.5775 0.0444 0.0000 ( 10136 PWs)   bands (ev):

   -21.5235 -21.4944 -10.1080  -9.8416  -7.1274  -7.0797  -6.6924  -6.0723
    -2.6710  -0.5295   2.7123   5.1616   5.2412   6.4486   6.7270   6.9348
     8.1614   8.2796   8.5357   8.6675   8.8302   9.2548   9.2599   9.7368
     9.8026  10.3916  10.4324  11.0680  11.1691  11.5943  11.9651  12.2654
    12.8357  13.4643  14.0968  14.2616  15.1211  15.8720  16.1039  16.4657

          k = 0.5775 0.0333 0.0000 ( 10156 PWs)   bands (ev):

   -21.5254 -21.4962 -10.1171  -9.8501  -7.0972  -7.0541  -6.6994  -6.0746
    -2.6807  -0.5425   2.6860   5.1431   5.2415   6.5823   6.7258   6.9241
     8.0996   8.2709   8.5202   8.6386   8.8181   9.2363   9.2469   9.6906
     9.7990  10.3727  10.4314  11.0700  11.1324  11.6280  11.9512  12.2527
    12.8068  13.4361  14.0829  14.2493  15.1130  16.0078  16.1241  16.5213

          k = 0.5775 0.0222 0.0000 ( 10146 PWs)   bands (ev):

   -21.5267 -21.4975 -10.1236  -9.8561  -7.0751  -7.0356  -6.7048  -6.0763
    -2.6876  -0.5519   2.6670   5.1300   5.2391   6.6971   6.7250   6.9154
     8.0424   8.2646   8.5089   8.6172   8.8095   9.2177   9.2411   9.6569
     9.7964  10.3590  10.4308  11.0701  11.1067  11.6559  11.9405  12.2436
    12.7864  13.4150  14.0729  14.2405  15.1069  16.1224  16.1268  16.4961

          k = 0.5775 0.0111 0.0000 ( 10138 PWs)   bands (ev):

   -21.5275 -21.4983 -10.1275  -9.8597  -7.0616  -7.0244  -6.7082  -6.0773
    -2.6918  -0.5577   2.6554   5.1221   5.2367   6.7245   6.7779   6.9080
     7.9998   8.2607   8.5020   8.6040   8.8043   9.2058   9.2376   9.6366
     9.7948  10.3506  10.4306  11.0697  11.0916  11.6745  11.9335  12.2382
    12.7744  13.4019  14.0668  14.2352  15.1031  16.1247  16.2077  16.4592

          k = 0.5775 0.0000 0.0000 ( 10142 PWs)   bands (ev):

   -21.5278 -21.4985 -10.1288  -9.8610  -7.0570  -7.0206  -6.7093  -6.0776
    -2.6931  -0.5596   2.6516   5.1194   5.2358   6.7243   6.8085   6.9041
     7.9838   8.2594   8.4996   8.5996   8.8025   9.2017   9.2364   9.6299
     9.7943  10.3478  10.4306  11.0695  11.0866  11.6810  11.9311  12.2364
    12.7704  13.3975  14.0647  14.2334  15.1018  16.1235  16.2432  16.4403

          k = 0.5583 0.0000 0.0000 ( 10156 PWs)   bands (ev):

   -21.5306 -21.5012 -10.1219  -9.8533  -7.0554  -7.0190  -6.7191  -6.0813
    -2.7013  -0.5343   2.6518   5.1137   5.2390   6.7044   6.7568   6.9085
     7.9622   8.1709   8.2518   8.7790   8.8798   9.1188   9.2925   9.7193
     9.8530  10.3283  10.4110  11.0738  11.1473  11.6812  11.9865  12.1554
    12.8728  13.3364  14.0272  14.3157  15.1267  16.0706  16.2233  16.4552

          k = 0.5390 0.0000 0.0000 ( 10142 PWs)   bands (ev):

   -21.5390 -21.5093 -10.1010  -9.8304  -7.0504  -7.0141  -6.7481  -6.0923
    -2.7246  -0.4599   2.6521   5.0962   5.2479   6.6231   6.6476   6.9215
     7.7533   7.9700   8.1579   8.6883   8.8839   9.3126   9.4383   9.7949
     9.9799  10.3710  10.3818  11.1023  11.2666  11.6819  12.0345  12.1240
    13.0717  13.2131  13.9391  14.5083  15.1837  15.9425  16.1641  16.5031

          k = 0.5198 0.0000 0.0000 ( 10132 PWs)   bands (ev):

   -21.5528 -21.5225 -10.0665  -9.7925  -7.0421  -7.0061  -6.7951  -6.1103
    -2.7605  -0.3403   2.6517   5.0663   5.2595   6.4462   6.5610   6.9432
     7.4415   7.7287   8.0891   8.5535   8.8022   9.5822   9.6024   9.8253
    10.0811  10.4354  10.5463  11.1821  11.3300  11.6825  12.0265  12.2723
    13.1275  13.2449  13.8706  14.7347  15.2424  15.7960  16.0667  16.5247

          k = 0.5005 0.0000 0.0000 ( 10130 PWs)   bands (ev):

   -21.5719 -21.5408 -10.0189  -9.7397  -7.0307  -6.9948  -6.8581  -6.1352
    -2.8054  -0.1808   2.6490   5.0229   5.2676   6.2571   6.4545   6.9733
     7.1244   7.4768   7.9193   8.4006   8.7792   9.6098   9.6192  10.1447
    10.1619  10.6140  10.7286  11.3255  11.3362  11.6824  12.1801  12.3411
    13.1803  13.2793  13.9334  14.9182  15.2886  15.7069  15.9332  16.4469

          k = 0.4813 0.0000 0.0000 ( 10144 PWs)   bands (ev):

   -21.5959 -21.5638  -9.9586  -9.6727  -7.0162  -6.9806  -6.9350  -6.1664
    -2.8563   0.0131   2.6422   4.9649   5.2599   6.0807   6.3374   6.8162
     7.0119   7.2278   7.6933   8.2389   8.7154   9.5402   9.6224  10.2698
    10.5151  10.7988  10.8605  11.4572  11.5084  11.6808  12.3346  12.4150
    13.1893  13.3913  14.1191  14.9522  15.3311  15.7668  15.7862  16.3506

          k = 0.4620 0.0000 0.0000 ( 10148 PWs)   bands (ev):

   -21.6245 -21.5912  -9.8866  -9.5917  -7.0228  -6.9986  -6.9635  -6.2035
    -2.9109   0.2363   2.6287   4.8920   5.2165   5.9410   6.2161   6.5214
     6.9912   7.0585   7.4513   8.0722   8.5777   9.4059   9.6871  10.3818
    10.6235  11.0397  11.1194  11.6691  11.6764  11.7084  12.3917  12.6344
    13.1152  13.6835  14.3217  14.8520  15.3985  15.5720  16.0274  16.2393

          k = 0.4428 0.0000 0.0000 ( 10150 PWs)   bands (ev):

   -21.6572 -21.6226  -9.8040  -9.4974  -7.1187  -6.9782  -6.9435  -6.2459
    -2.9676   0.4841   2.6055   4.8051   5.1198   5.8506   6.0919   6.2471
     6.7757   7.1131   7.2113   7.9043   8.3970   9.2491   9.7269  10.4912
    10.5884  11.2750  11.4552  11.6679  11.8395  11.9954  12.6068  12.6889
    13.2408  13.9777  14.4796  14.7446  15.3538  15.5264  16.1175  16.3333

          k = 0.4235 0.0000 0.0000 ( 10138 PWs)   bands (ev):

   -21.6936 -21.6574  -9.7119  -9.3905  -7.2196  -6.9552  -6.9210  -6.2929
    -3.0256   0.7524   2.5697   4.7062   4.9747   5.7725   5.9604   6.0220
     6.5914   6.9839   7.1753   7.7400   8.2018   9.0826   9.6781  10.5919
    10.6267  11.2596  11.6534  11.8779  12.1380  12.2297  12.6922  12.9298
    13.5236  14.1372  14.5799  14.7966  15.1177  15.7250  15.9902  16.6431

          k = 0.4043 0.0000 0.0000 ( 10134 PWs)   bands (ev):

   -21.7331 -21.6954  -9.6121  -9.2717  -7.3223  -6.9297  -6.8960  -6.3438
    -3.0842   1.0374   2.5183   4.5987   4.8022   5.6062   5.8151   5.9161
     6.4461   6.7800   7.2446   7.5847   8.0092   8.9132   9.5504  10.6493
    10.7322  11.2105  11.6312  12.1278  12.4383  12.5106  12.8956  13.2863
    13.8246  14.1094  14.6646  14.8690  15.0886  15.8634  15.9567  16.8870

          k = 0.3850 0.0000 0.0000 ( 10136 PWs)   bands (ev):

   -21.7753 -21.7358  -9.5068  -9.1420  -7.4234  -6.9020  -6.8689  -6.3979
    -3.1434   1.3351   2.4490   4.4860   4.6202   5.3795   5.6547   5.8668
     6.3392   6.6135   7.3206   7.4445   7.8319   8.7457   9.3849  10.6055
    10.8544  11.2502  11.5995  12.0754  12.8466  12.8954  13.2264  13.5745
    14.0687  14.1288  14.6130  14.8137  15.4808  15.7429  16.1474  16.9716

          k = 0.3658 0.0000 0.0000 ( 10130 PWs)   bands (ev):

   -21.8195 -21.7783  -9.3987  -9.0021  -7.5191  -6.8723  -6.8399  -6.4545
    -3.2031   1.6409   2.3606   4.3708   4.4399   5.1482   5.4846   5.7896
     6.2608   6.4948   7.3256   7.4027   7.6827   8.5844   9.2090  10.4726
    10.9511  11.3859  11.5565  12.0019  13.1899  13.2565  13.5941  13.7249
    14.2354  14.3543  14.4093  15.0791  15.6342  15.8990  16.2388  16.9293

          k = 0.3465 0.0000 0.0000 ( 10124 PWs)   bands (ev):

   -21.8653 -21.8222  -9.2917  -8.8532  -7.6050  -6.8409  -6.8092  -6.5128
    -3.2634   1.9487   2.2528   4.2545   4.2691   4.9251   5.3126   5.6665
     6.1975   6.4119   7.2335   7.4902   7.5750   8.4341   9.0385  10.3023
    10.9914  11.5009  11.5699  11.9766  13.2246  13.5630  13.9828  14.0302
    14.0970  14.4323  14.8354  15.4073  15.5421  16.2765  16.2854  16.8860

          k = 0.3273 0.0000 0.0000 ( 10118 PWs)   bands (ev):

   -21.9120 -21.8671  -9.1907  -8.6963  -7.6756  -6.8081  -6.7772  -6.5720
    -3.3243   2.1268   2.2490   4.1163   4.1376   4.7138   5.1447   5.5128
     6.1379   6.3330   7.1710   7.5180   7.5823   8.3003   8.8847  10.1205
    10.9651  11.4320  11.7719  12.0148  13.1307  13.6922  13.8450  14.3939
    14.4645  14.7617  15.3040  15.4706  15.6861  16.3865  16.4618  17.0546

          k = 0.3080 0.0000 0.0000 ( 10100 PWs)   bands (ev):

   -21.9591 -21.9124  -9.1022  -8.5325  -7.7244  -6.7743  -6.7441  -6.6315
    -3.3859   1.9846   2.5248   3.9935   4.0202   4.5175   4.9843   5.3482
     6.0750   6.2357   7.1359   7.5064   7.6781   8.1901   8.7600   9.9378
    10.8890  11.3500  11.9656  12.1008  13.0360  13.6016  13.7063  14.7951
    14.9341  15.1824  15.4221  15.7758  15.8371  16.4360  16.6824  17.4524

          k = 0.2888 0.0000 0.0000 ( 10102 PWs)   bands (ev):

   -22.0062 -21.9576  -9.0334  -8.3632  -7.7444  -6.7397  -6.7104  -6.6905
    -3.4483   1.8289   2.7457   3.9022   3.9189   4.3433   4.8331   5.1881
     6.0068   6.1179   7.1191   7.5175   7.7763   8.1128   8.6802   9.7592
    10.7878  11.2557  12.1107  12.2095  13.0023  13.3701  13.6777  15.1028
    15.3981  15.4015  15.6123  16.0203  16.1215  16.5227  17.1053  17.8890

          k = 0.2695 0.0000 0.0000 ( 10100 PWs)   bands (ev):

   -22.0526 -22.0023  -8.9902  -8.1897  -7.7298  -6.7483  -6.7048  -6.6763
    -3.5115   1.6626   2.8717   3.7842   3.8941   4.2169   4.6916   5.0484
     5.9343   5.9891   7.1068   7.5212   7.8758   8.0794   8.6626   9.5874
    10.6794  11.1511  12.1601  12.3211  13.0807  13.1531  13.6395  15.2082
    15.3985  15.7653  16.0278  16.2497  16.4139  16.9473  17.5695  18.2728

          k = 0.2503 0.0000 0.0000 ( 10094 PWs)   bands (ev):

   -22.0979 -22.0459  -8.9746  -8.0136  -7.6793  -6.8041  -6.6700  -6.6423
    -3.5755   1.4886   2.8909   3.6671   3.8401   4.1992   4.5597   4.9575
     5.8602   5.8621   7.0860   7.4962   7.9749   8.0979   8.7153   9.4245
    10.5754  11.0385  12.1183  12.4200  12.9534  13.2663  13.6096  15.1669
    15.4226  15.8248  16.4735  16.6074  16.9278  17.4611  17.9875  18.4918

          k = 0.2310 0.0000 0.0000 ( 10082 PWs)   bands (ev):

   -22.1417 -22.0880  -8.9834  -7.8369  -7.5966  -6.8570  -6.6355  -6.6087
    -3.6402   1.3098   2.8372   3.5522   3.7240   4.2306   4.4369   4.9634
     5.7549   5.7865   7.0510   7.4409   8.0721   8.1686   8.8286   9.2718
    10.4847  10.9206  12.0302  12.4921  12.7733  13.5114  13.6004  15.0683
    15.4685  15.7551  16.9300  17.0855  17.4770  17.9737  18.1104  18.2585

          k = 0.2118 0.0000 0.0000 ( 10092 PWs)   bands (ev):

   -22.1836 -22.1283  -9.0104  -7.6618  -7.4893  -6.9060  -6.6019  -6.5759
    -3.7056   1.1291   2.7484   3.4412   3.5928   4.1961   4.3231   5.0628
     5.7055   5.7151   7.0044   7.3666   8.1656   8.2838   8.9793   9.1309
    10.4171  10.8005  11.9261  12.5260  12.6149  13.6187  13.7808  14.9500
    15.5341  15.6704  17.3318  17.5599  17.9298  17.9437  18.1910  18.3799

          k = 0.1925 0.0000 0.0000 ( 10076 PWs)   bands (ev):

   -22.2231 -22.1663  -9.0487  -7.4918  -7.3652  -6.9489  -6.5695  -6.5442
    -3.7713   0.9489   2.6461   3.3356   3.4648   4.1068   4.2180   5.1307
     5.6471   5.7900   6.9519   7.2858   8.2536   8.4306   9.0047   9.1398
    10.3864  10.6812  11.8200  12.4800  12.5165  13.6594  14.0532  14.8338
    15.5952  15.6168  17.4903  17.6074  17.9339  18.1859  18.5101  18.7085

          k = 0.1733 0.0000 0.0000 ( 10062 PWs)   bands (ev):

   -22.2598 -22.2017  -9.0928  -7.3341  -7.2314  -6.9805  -6.5387  -6.5142
    -3.8372   0.7722   2.5406   3.2367   3.3454   3.9984   4.1217   5.1033
     5.5833   6.0195   6.8987   7.2096   8.3343   8.5889   8.9037   9.2799
    10.4113  10.5652  11.7182  12.3697  12.4665  13.7021  14.3097  14.7432
    15.5435  15.7135  17.2953  17.4045  17.9985  18.5534  18.6302  19.2726

          k = 0.1540 0.0000 0.0000 ( 10054 PWs)   bands (ev):

   -22.2936 -22.2342  -9.1385  -7.2098  -7.0937  -6.9812  -6.5099  -6.4861
    -3.9027   0.6017   2.4377   3.1458   3.2364   3.8885   4.0344   5.0323
     5.5243   6.3099   6.8482   7.1514   8.4062   8.6781   8.9004   9.3743
    10.4551  10.5086  11.6237  12.2846  12.3821  13.7152  14.5272  14.7073
    15.5324  15.8211  16.9970  17.2453  17.7957  18.7803  18.8423  19.2062

          k = 0.1348 0.0000 0.0000 ( 10032 PWs)   bands (ev):

   -22.3241 -22.2635  -9.1830  -7.1613  -6.9571  -6.9112  -6.4835  -6.4604
    -3.9671   0.4403   2.3407   3.0638   3.1388   3.7850   3.9563   4.9525
     5.4706   6.5840   6.8026   7.1446   8.4683   8.6290   9.0565   9.4167
    10.3532  10.6761  11.5383  12.2241  12.2694  13.6772  14.6779  14.7458
    15.5827  15.9362  16.7163  17.0580  17.5127  18.7406  18.8867  19.2318

          k = 0.1155 0.0000 0.0000 (  9998 PWs)   bands (ev):

   -22.3510 -22.2894  -9.2242  -7.1668  -6.8259  -6.7946  -6.4598  -6.4373
    -4.0293   0.2910   2.2518   2.9914   3.0533   3.6916   3.8879   4.8766
     5.4227   6.7397   6.7629   7.2729   8.5201   8.5559   9.2505   9.4204
    10.2612  10.8902  11.4628  12.1354  12.1864  13.5950  14.7501  14.8506
    15.6977  16.0545  16.4571  16.8515  17.2183  18.4857  18.9711  19.2836

          k = 0.0963 0.0000 0.0000 ( 10012 PWs)   bands (ev):

   -22.3741 -22.3117  -9.2608  -7.1850  -6.7044  -6.6756  -6.4391  -6.4172
    -4.0879   0.1571   2.1731   2.9293   2.9803   3.6106   3.8293   4.8093
     5.3812   6.7295   6.7630   7.5394   8.4887   8.5615   9.4018   9.4447
    10.1808  11.1169  11.3978  11.9942  12.1683  13.4915  14.7634  14.9967
    15.8475  16.1714  16.2241  16.6308  16.9442  18.2492  19.0477  19.2656

          k = 0.0770 0.0000 0.0000 ( 10010 PWs)   bands (ev):

   -22.3933 -22.3302  -9.2918  -7.2038  -6.5966  -6.5691  -6.4218  -6.4003
    -4.1410   0.0417   2.1060   2.8780   2.9201   3.5431   3.7810   4.7528
     5.3465   6.7024   6.7432   7.8454   8.4321   8.5933   9.3715   9.6257
    10.1133  11.3016  11.3437  11.8874  12.1654  13.3848  14.7458  15.1609
    15.9890  16.0221  16.2813  16.4049  16.7157  18.0516  19.1200  19.2076

          k = 0.0578 0.0000 0.0000 ( 10006 PWs)   bands (ev):

   -22.4083 -22.3447  -9.3165  -7.2198  -6.5068  -6.4812  -6.4081  -6.3870
    -4.1864  -0.0521   2.0522   2.8377   2.8730   3.4901   3.7431   4.7082
     5.3191   6.6816   6.7173   8.1416   8.3876   8.6162   9.3343   9.7828
    10.0597  11.3008  11.3453  11.9084  12.1723  13.2844  14.7162  15.3243
    15.8568  16.0779  16.1892  16.3779  16.5656  17.8956  19.1317  19.1860

          k = 0.0385 0.0000 0.0000 (  9994 PWs)   bands (ev):

   -22.4192 -22.3552  -9.3345  -7.2316  -6.4390  -6.4157  -6.3982  -6.3773
    -4.2214  -0.1213   2.0128   2.8088   2.8392   3.4520   3.7159   4.6761
     5.2992   6.6669   6.6958   8.3555   8.4004   8.6316   9.2921   9.9054
    10.0209  11.2616  11.2696  12.0432  12.1829  13.1961  14.6862  15.4708
    15.7335  16.0020  16.0822  16.4540  16.5201  17.7807  19.0567  19.2406

          k = 0.0193 0.0000 0.0000 (  9986 PWs)   bands (ev):

   -22.4257 -22.3615  -9.3453  -7.2390  -6.3967  -6.3921  -6.3753  -6.3714
    -4.2436  -0.1639   1.9887   2.7914   2.8189   3.4291   3.6995   4.6567
     5.2872   6.6581   6.6820   8.3362   8.5898   8.6403   9.2503   9.9837
     9.9974  11.1706  11.2505  12.1708  12.1919  13.1296  14.6642  15.5867
    15.6571  15.8606  16.0453  16.5031  16.5334  17.7086  19.0015  19.2771

          k = 0.0000 0.0000 0.0000 (  9961 PWs)   bands (ev):

   -22.4279 -22.3636  -9.3490  -7.2414  -6.3901  -6.3823  -6.3694  -6.3616
    -4.2512  -0.1783   1.9806   2.7856   2.8121   3.4214   3.6941   4.6502
     5.2832   6.6552   6.6773   8.3297   8.6432   8.6633   9.2296   9.9895
    10.0107  11.1341  11.2441  12.1954  12.2218  13.1033  14.6562  15.6313
    15.6446  15.7942  16.0272  16.5201  16.5438  17.6838  18.9813  19.2900

     Writing all to output data dir ./work/Al2O2.save/
 
     init_run     :      0.19s CPU      0.22s WALL (       1 calls)
     electrons    :     89.13s CPU    125.49s WALL (       1 calls)

     Called by init_run:
     wfcinit      :      0.00s CPU      0.00s WALL (       1 calls)
     wfcinit:atom :      0.01s CPU      0.01s WALL (      91 calls)
     wfcinit:wfcr :      1.73s CPU      2.63s WALL (      91 calls)
     potinit      :      0.06s CPU      0.07s WALL (       1 calls)
     hinit0       :      0.08s CPU      0.09s WALL (       1 calls)

     Called by electrons:
     c_bands      :     89.13s CPU    125.49s WALL (       1 calls)
     v_of_rho     :      0.00s CPU      0.01s WALL (       1 calls)
     v_h          :      0.00s CPU      0.00s WALL (       1 calls)
     v_xc         :      0.00s CPU      0.01s WALL (       1 calls)
     newd         :      0.03s CPU      0.04s WALL (       1 calls)
     PAW_pot      :      0.05s CPU      0.06s WALL (       1 calls)

     Called by c_bands:
     init_us_2    :      0.02s CPU      0.03s WALL (      91 calls)
     init_us_2:cp :      0.02s CPU      0.03s WALL (      91 calls)
     cegterg      :     87.15s CPU    122.59s WALL (     324 calls)

     Called by sum_band:

     Called by *egterg:
     cdiaghg      :      9.13s CPU     10.19s WALL (    5783 calls)
     cegterg:over :      6.77s CPU      7.96s WALL (    5692 calls)
     cegterg:upda :      3.04s CPU      3.21s WALL (    5692 calls)
     cegterg:last :     10.62s CPU     10.76s WALL (    3238 calls)
     h_psi        :     54.50s CPU     87.62s WALL (    6107 calls)
     s_psi        :      2.42s CPU      2.83s WALL (    6107 calls)
     g_psi        :      0.15s CPU      0.16s WALL (    5692 calls)

     Called by h_psi:
     h_psi:calbec :      3.03s CPU      4.57s WALL (    6107 calls)
     vloc_psi     :     47.60s CPU     78.12s WALL (    6107 calls)
     add_vuspsi   :      3.40s CPU      4.43s WALL (    6107 calls)

     General routines
     calbec       :      3.02s CPU      4.56s WALL (    6107 calls)
     fft          :      0.00s CPU      0.01s WALL (      12 calls)
     fftw         :     45.99s CPU     75.70s WALL (  264762 calls)
     davcio       :      0.04s CPU      0.05s WALL (     182 calls)
 
     Parallel routines

     PAW routines
     PAW_pot      :      0.05s CPU      0.06s WALL (       1 calls)
 
     PWSCF        :   1m29.99s CPU   2m 7.50s WALL

 
   This run was terminated on:  22:18:53  19Jun2023            

=------------------------------------------------------------------------------=
   JOB DONE.
=------------------------------------------------------------------------------=
