
     Program PWSCF v.7.1 starts on 19Jun2023 at 22:15:38 

     This program is part of the open-source Quantum ESPRESSO suite
     for quantum simulation of materials; please cite
         "P. Giannozzi et al., J. Phys.:Condens. Matter 21 395502 (2009);
         "P. Giannozzi et al., J. Phys.:Condens. Matter 29 465901 (2017);
         "P. Giannozzi et al., J. Chem. Phys. 152 154105 (2020);
          URL http://www.quantum-espresso.org", 
     in publications or presentations arising from this work. More details at
     http://www.quantum-espresso.org/quote

     Parallel version (MPI), running on    22 processors

     MPI processes distributed on     1 nodes
     47528 MiB available memory on the printing compute node when the environment starts
 
     Waiting for input...
     Reading input from standard input

     Current dimensions of program PWSCF are:
     Max number of different atomic species (ntypx) = 10
     Max number of k-points (npk) =  40000
     Max angular momentum in pseudopotentials (lmaxx) =  4
     Message from routine volume:
     axis vectors are left-handed
     file Al.pbe-n-kjpaw_psl.1.0.0.UPF: wavefunction(s)  3S 3P renormalized
     file O.pbe-n-kjpaw_psl.1.0.0.UPF: wavefunction(s)  2S 2P renormalized
     Message from routine setup:
     using ibrav=0 with symmetry is DISCOURAGED, use correct ibrav instead
 
     R & G space division:  proc/nbgrp/npool/nimage =      22
     Subspace diagonalization in iterative solution of the eigenvalue problem:
     a serial algorithm will be used

 
     Parallelization info
     --------------------
     sticks:   dense  smooth     PW     G-vecs:    dense   smooth      PW
     Min          23      23      7                 3655     3655     653
     Max          24      24      8                 3696     3696     688
     Sum         511     511    163                80843    80843   14691
 
     Using Slab Decomposition
 


     bravais-lattice index     =            0
     lattice parameter (alat)  =       5.6114  a.u.
     unit-cell volume          =    1288.9767 (a.u.)^3
     number of atoms/cell      =            4
     number of atomic types    =            2
     number of electrons       =        18.00
     number of Kohn-Sham states=           40
     kinetic-energy cutoff     =      60.0000  Ry
     charge density cutoff     =     240.0000  Ry
     scf convergence threshold =      1.0E-08
     mixing beta               =       0.5000
     number of iterations used =            8  plain     mixing
     Exchange-correlation= SLA  PW   PBX  PBC
                           (   1   4   3   4   0   0   0)

     celldm(1)=   5.611386  celldm(2)=   0.000000  celldm(3)=   0.000000
     celldm(4)=   0.000000  celldm(5)=   0.000000  celldm(6)=   0.000000

     crystal axes: (cart. coord. in units of alat)
               a(1) = (   0.865790   0.500407   0.000000 )  
               a(2) = (   0.865790  -0.500407   0.000000 )  
               a(3) = (   0.000000   0.000000   8.419160 )  

     reciprocal axes: (cart. coord. in units 2 pi/alat)
               b(1) = (  0.577507  0.999187  0.000000 )  
               b(2) = (  0.577507 -0.999187  0.000000 )  
               b(3) = (  0.000000  0.000000  0.118777 )  


     PseudoPot. # 1 for Al read from file:
     /home/mainadmin/research/danu/pseudo/Al.pbe-n-kjpaw_psl.1.0.0.UPF
     MD5 check sum: 502b6b27b9c6270cab5dd1084b96fa6d
     Pseudo is Projector augmented-wave + core cor, Zval =  3.0
     Generated using &quot;atomic&quot; code by A. Dal Corso  v.6.3
     Shape of augmentation charge: PSQ
     Using radial grid of 1135 points,  6 beta functions with: 
                l(1) =   0
                l(2) =   0
                l(3) =   1
                l(4) =   1
                l(5) =   2
                l(6) =   2
     Q(r) pseudized with 0 coefficients 


     PseudoPot. # 2 for O  read from file:
     /home/mainadmin/research/danu/pseudo/O.pbe-n-kjpaw_psl.1.0.0.UPF
     MD5 check sum: e99d9cef9b487d1ca56f5b95ecd0fd7a
     Pseudo is Projector augmented-wave + core cor, Zval =  6.0
     Generated using &quot;atomic&quot; code by A. Dal Corso  v.6.3
     Shape of augmentation charge: PSQ
     Using radial grid of 1095 points,  4 beta functions with: 
                l(1) =   0
                l(2) =   0
                l(3) =   1
                l(4) =   1
     Q(r) pseudized with 0 coefficients 


     atomic species   valence    mass     pseudopotential
        Al             3.00    26.98100     Al( 1.00)
        O              6.00    15.99900     O ( 1.00)

      2 Sym. Ops. (no inversion) found


                                    s                        frac. trans.

      isym =  1     identity                                     

 cryst.   s( 1) = (     1          0          0      )
                  (     0          1          0      )
                  (     0          0          1      )

 cart.    s( 1) = (  1.0000000  0.0000000  0.0000000 )
                  (  0.0000000  1.0000000  0.0000000 )
                  (  0.0000000  0.0000000  1.0000000 )


      isym =  2     inv. 180 deg rotation - cart. axis [0,1,0]   

 cryst.   s( 2) = (     0          1          0      )
                  (     1          0          0      )
                  (     0          0          1      )

 cart.    s( 2) = (  1.0000000  0.0000000  0.0000000 )
                  (  0.0000000 -1.0000000  0.0000000 )
                  (  0.0000000  0.0000000  1.0000000 )


   Cartesian axes

     site n.     atom                  positions (alat units)
         1           O   tau(   1) = (   1.1545548   0.0000000   3.5560643  )
         2           Al  tau(   2) = (   0.5770825   0.0000000   3.7791201  )
         3           Al  tau(   3) = (   0.5770294   0.0000000   4.6620761  )
         4           O   tau(   4) = (   1.1544952   0.0000000   4.8850991  )

   Crystallographic axes

     site n.     atom                  positions (cryst. coord.)
         1           O   tau(   1) = (  0.6667634  0.6667634  0.4223776  )
         2           Al  tau(   2) = (  0.3332692  0.3332692  0.4488714  )
         3           Al  tau(   3) = (  0.3332385  0.3332385  0.5537460  )
         4           O   tau(   4) = (  0.6667290  0.6667290  0.5802360  )

     number of k points=    49
                       cart. coord. in units 2pi/alat
        k(    1) = (   0.0000000   0.0000000   0.0000000), wk =   0.0118343
        k(    2) = (   0.0444236  -0.0768606   0.0000000), wk =   0.0473373
        k(    3) = (   0.0888472  -0.1537211   0.0000000), wk =   0.0473373
        k(    4) = (   0.1332708  -0.2305817   0.0000000), wk =   0.0473373
        k(    5) = (   0.1776944  -0.3074422   0.0000000), wk =   0.0473373
        k(    6) = (   0.2221181  -0.3843028   0.0000000), wk =   0.0473373
        k(    7) = (   0.2665417  -0.4611633   0.0000000), wk =   0.0473373
        k(    8) = (   0.0888472   0.0000000   0.0000000), wk =   0.0236686
        k(    9) = (   0.1332708  -0.0768606   0.0000000), wk =   0.0473373
        k(   10) = (   0.1776944  -0.1537211   0.0000000), wk =   0.0473373
        k(   11) = (   0.2221181  -0.2305817   0.0000000), wk =   0.0473373
        k(   12) = (   0.2665417  -0.3074422   0.0000000), wk =   0.0473373
        k(   13) = (   0.3109653  -0.3843028   0.0000000), wk =   0.0473373
        k(   14) = (  -0.2221181   0.5380239   0.0000000), wk =   0.0473373
        k(   15) = (  -0.1776944   0.4611633   0.0000000), wk =   0.0473373
        k(   16) = (  -0.1332708   0.3843028   0.0000000), wk =   0.0473373
        k(   17) = (  -0.0888472   0.3074422   0.0000000), wk =   0.0473373
        k(   18) = (  -0.0444236   0.2305817   0.0000000), wk =   0.0473373
        k(   19) = (   0.0000000   0.1537211   0.0000000), wk =   0.0236686
        k(   20) = (   0.1776944   0.0000000   0.0000000), wk =   0.0236686
        k(   21) = (   0.2221181  -0.0768606   0.0000000), wk =   0.0473373
        k(   22) = (   0.2665417  -0.1537211   0.0000000), wk =   0.0473373
        k(   23) = (   0.3109653  -0.2305817   0.0000000), wk =   0.0473373
        k(   24) = (   0.3553889  -0.3074422   0.0000000), wk =   0.0473373
        k(   25) = (  -0.1776944   0.6148844   0.0000000), wk =   0.0473373
        k(   26) = (  -0.1332708   0.5380239   0.0000000), wk =   0.0473373
        k(   27) = (  -0.0888472   0.4611633   0.0000000), wk =   0.0473373
        k(   28) = (  -0.0444236   0.3843028   0.0000000), wk =   0.0473373
        k(   29) = (   0.0000000   0.3074422   0.0000000), wk =   0.0236686
        k(   30) = (   0.2665417   0.0000000   0.0000000), wk =   0.0236686
        k(   31) = (   0.3109653  -0.0768606   0.0000000), wk =   0.0473373
        k(   32) = (   0.3553889  -0.1537211   0.0000000), wk =   0.0473373
        k(   33) = (   0.3998125  -0.2305817   0.0000000), wk =   0.0473373
        k(   34) = (  -0.1332708   0.6917450   0.0000000), wk =   0.0473373
        k(   35) = (  -0.0888472   0.6148844   0.0000000), wk =   0.0473373
        k(   36) = (  -0.0444236   0.5380239   0.0000000), wk =   0.0473373
        k(   37) = (   0.0000000   0.4611633   0.0000000), wk =   0.0236686
        k(   38) = (   0.3553889   0.0000000   0.0000000), wk =   0.0236686
        k(   39) = (   0.3998125  -0.0768606   0.0000000), wk =   0.0473373
        k(   40) = (   0.4442361  -0.1537211   0.0000000), wk =   0.0473373
        k(   41) = (  -0.0888472   0.7686056   0.0000000), wk =   0.0473373
        k(   42) = (  -0.0444236   0.6917450   0.0000000), wk =   0.0473373
        k(   43) = (   0.0000000   0.6148844   0.0000000), wk =   0.0236686
        k(   44) = (   0.4442361   0.0000000   0.0000000), wk =   0.0236686
        k(   45) = (   0.4886597  -0.0768606   0.0000000), wk =   0.0473373
        k(   46) = (  -0.0444236   0.8454661   0.0000000), wk =   0.0473373
        k(   47) = (   0.0000000   0.7686056   0.0000000), wk =   0.0236686
        k(   48) = (   0.5330833   0.0000000   0.0000000), wk =   0.0236686
        k(   49) = (   0.0000000   0.9223267   0.0000000), wk =   0.0236686

                       cryst. coord.
        k(    1) = (   0.0000000   0.0000000   0.0000000), wk =   0.0118343
        k(    2) = (   0.0000000   0.0769231   0.0000000), wk =   0.0473373
        k(    3) = (   0.0000000   0.1538462   0.0000000), wk =   0.0473373
        k(    4) = (   0.0000000   0.2307692   0.0000000), wk =   0.0473373
        k(    5) = (   0.0000000   0.3076923   0.0000000), wk =   0.0473373
        k(    6) = (   0.0000000   0.3846154   0.0000000), wk =   0.0473373
        k(    7) = (   0.0000000   0.4615385   0.0000000), wk =   0.0473373
        k(    8) = (   0.0769231   0.0769231   0.0000000), wk =   0.0236686
        k(    9) = (   0.0769231   0.1538462   0.0000000), wk =   0.0473373
        k(   10) = (   0.0769231   0.2307692   0.0000000), wk =   0.0473373
        k(   11) = (   0.0769231   0.3076923   0.0000000), wk =   0.0473373
        k(   12) = (   0.0769231   0.3846154   0.0000000), wk =   0.0473373
        k(   13) = (   0.0769231   0.4615385   0.0000000), wk =   0.0473373
        k(   14) = (   0.0769231  -0.4615385   0.0000000), wk =   0.0473373
        k(   15) = (   0.0769231  -0.3846154   0.0000000), wk =   0.0473373
        k(   16) = (   0.0769231  -0.3076923   0.0000000), wk =   0.0473373
        k(   17) = (   0.0769231  -0.2307692   0.0000000), wk =   0.0473373
        k(   18) = (   0.0769231  -0.1538462   0.0000000), wk =   0.0473373
        k(   19) = (   0.0769231  -0.0769231   0.0000000), wk =   0.0236686
        k(   20) = (   0.1538462   0.1538462   0.0000000), wk =   0.0236686
        k(   21) = (   0.1538462   0.2307692   0.0000000), wk =   0.0473373
        k(   22) = (   0.1538462   0.3076923   0.0000000), wk =   0.0473373
        k(   23) = (   0.1538462   0.3846154   0.0000000), wk =   0.0473373
        k(   24) = (   0.1538462   0.4615385   0.0000000), wk =   0.0473373
        k(   25) = (   0.1538462  -0.4615385   0.0000000), wk =   0.0473373
        k(   26) = (   0.1538462  -0.3846154   0.0000000), wk =   0.0473373
        k(   27) = (   0.1538462  -0.3076923   0.0000000), wk =   0.0473373
        k(   28) = (   0.1538462  -0.2307692   0.0000000), wk =   0.0473373
        k(   29) = (   0.1538462  -0.1538462   0.0000000), wk =   0.0236686
        k(   30) = (   0.2307692   0.2307692   0.0000000), wk =   0.0236686
        k(   31) = (   0.2307692   0.3076923   0.0000000), wk =   0.0473373
        k(   32) = (   0.2307692   0.3846154   0.0000000), wk =   0.0473373
        k(   33) = (   0.2307692   0.4615385   0.0000000), wk =   0.0473373
        k(   34) = (   0.2307692  -0.4615385   0.0000000), wk =   0.0473373
        k(   35) = (   0.2307692  -0.3846154   0.0000000), wk =   0.0473373
        k(   36) = (   0.2307692  -0.3076923   0.0000000), wk =   0.0473373
        k(   37) = (   0.2307692  -0.2307692   0.0000000), wk =   0.0236686
        k(   38) = (   0.3076923   0.3076923   0.0000000), wk =   0.0236686
        k(   39) = (   0.3076923   0.3846154   0.0000000), wk =   0.0473373
        k(   40) = (   0.3076923   0.4615385   0.0000000), wk =   0.0473373
        k(   41) = (   0.3076923  -0.4615385   0.0000000), wk =   0.0473373
        k(   42) = (   0.3076923  -0.3846154   0.0000000), wk =   0.0473373
        k(   43) = (   0.3076923  -0.3076923   0.0000000), wk =   0.0236686
        k(   44) = (   0.3846154   0.3846154   0.0000000), wk =   0.0236686
        k(   45) = (   0.3846154   0.4615385   0.0000000), wk =   0.0473373
        k(   46) = (   0.3846154  -0.4615385   0.0000000), wk =   0.0473373
        k(   47) = (   0.3846154  -0.3846154   0.0000000), wk =   0.0236686
        k(   48) = (   0.4615385   0.4615385   0.0000000), wk =   0.0236686
        k(   49) = (   0.4615385  -0.4615385   0.0000000), wk =   0.0236686

     Dense  grid:    80843 G-vectors     FFT dimensions: (  27,  27, 240)

     Dynamical RAM for                 wfc:       0.28 MB

     Dynamical RAM for     wfc (w. buffer):      14.01 MB

     Dynamical RAM for           str. fact:       0.11 MB

     Dynamical RAM for           local pot:       0.00 MB

     Dynamical RAM for          nlocal pot:       0.36 MB

     Dynamical RAM for                qrad:       2.49 MB

     Dynamical RAM for          rho,v,vnew:       0.35 MB

     Dynamical RAM for               rhoin:       0.12 MB

     Dynamical RAM for            rho*nmix:       0.90 MB

     Dynamical RAM for           G-vectors:       0.24 MB

     Dynamical RAM for          h,s,v(r/c):       0.29 MB

     Dynamical RAM for          <psi|beta>:       0.03 MB

     Dynamical RAM for                 psi:       0.56 MB

     Dynamical RAM for                hpsi:       0.56 MB

     Dynamical RAM for                spsi:       0.56 MB

     Dynamical RAM for      wfcinit/wfcrot:       0.60 MB

     Dynamical RAM for           addusdens:      10.53 MB

     Estimated static dynamical RAM per process >      18.15 MB

     Estimated max dynamical RAM per process >      29.57 MB

     Estimated total dynamical RAM >     650.61 MB

     Check: negative core charge=   -0.000003

     Initial potential from superposition of free atoms

     starting charge      17.9954, renormalised to      18.0000

     negative rho (up, down):  1.409E-03 0.000E+00
     Starting wfcs are   16 randomized atomic wfcs +   24 random wfcs
     Checking if some PAW data can be deallocated... 
       PAW data deallocated on   11 nodes for type:  1
       PAW data deallocated on   11 nodes for type:  2

     total cpu time spent up to now is        1.8 secs

     Self-consistent Calculation

     iteration #  1     ecut=    60.00 Ry     beta= 0.50
     Davidson diagonalization with overlap

---- Real-time Memory Report at c_bands before calling an iterative solver
           108 MiB given to the printing process from OS
             0 MiB allocation reported by mallinfo(arena+hblkhd)
         46453 MiB available memory on the node where the printing process lives
------------------
     ethr =  1.00E-02,  avg # of iterations =  8.9

     negative rho (up, down):  1.490E-03 0.000E+00

     total cpu time spent up to now is       13.4 secs

     total energy              =    -162.38791138 Ry
     estimated scf accuracy    <       0.90152773 Ry

     iteration #  2     ecut=    60.00 Ry     beta= 0.50
     Davidson diagonalization with overlap

---- Real-time Memory Report at c_bands before calling an iterative solver
           134 MiB given to the printing process from OS
             0 MiB allocation reported by mallinfo(arena+hblkhd)
         45898 MiB available memory on the node where the printing process lives
------------------
     ethr =  5.01E-03,  avg # of iterations =  1.9

     negative rho (up, down):  1.351E-03 0.000E+00

     total cpu time spent up to now is       17.7 secs

     total energy              =    -162.61288475 Ry
     estimated scf accuracy    <       0.34156180 Ry

     iteration #  3     ecut=    60.00 Ry     beta= 0.50
     Davidson diagonalization with overlap

---- Real-time Memory Report at c_bands before calling an iterative solver
           134 MiB given to the printing process from OS
             0 MiB allocation reported by mallinfo(arena+hblkhd)
         45894 MiB available memory on the node where the printing process lives
------------------
     ethr =  1.90E-03,  avg # of iterations =  1.9

     negative rho (up, down):  1.446E-03 0.000E+00

     total cpu time spent up to now is       22.0 secs

     total energy              =    -162.70168806 Ry
     estimated scf accuracy    <       0.01587031 Ry

     iteration #  4     ecut=    60.00 Ry     beta= 0.50
     Davidson diagonalization with overlap

---- Real-time Memory Report at c_bands before calling an iterative solver
           135 MiB given to the printing process from OS
             0 MiB allocation reported by mallinfo(arena+hblkhd)
         45892 MiB available memory on the node where the printing process lives
------------------
     c_bands:  1 eigenvalues not converged
     ethr =  8.82E-05,  avg # of iterations =  8.5

     negative rho (up, down):  1.935E-03 0.000E+00

     total cpu time spent up to now is       28.7 secs

     total energy              =    -162.71080748 Ry
     estimated scf accuracy    <       0.00372746 Ry

     iteration #  5     ecut=    60.00 Ry     beta= 0.50
     Davidson diagonalization with overlap

---- Real-time Memory Report at c_bands before calling an iterative solver
           135 MiB given to the printing process from OS
             0 MiB allocation reported by mallinfo(arena+hblkhd)
         45889 MiB available memory on the node where the printing process lives
------------------
     ethr =  2.07E-05,  avg # of iterations =  3.7

     negative rho (up, down):  1.868E-03 0.000E+00

     total cpu time spent up to now is       33.5 secs

     total energy              =    -162.71112317 Ry
     estimated scf accuracy    <       0.00033998 Ry

     iteration #  6     ecut=    60.00 Ry     beta= 0.50
     Davidson diagonalization with overlap

---- Real-time Memory Report at c_bands before calling an iterative solver
           135 MiB given to the printing process from OS
             0 MiB allocation reported by mallinfo(arena+hblkhd)
         45887 MiB available memory on the node where the printing process lives
------------------
     ethr =  1.89E-06,  avg # of iterations =  8.2

     negative rho (up, down):  1.864E-03 0.000E+00

     total cpu time spent up to now is       39.8 secs

     total energy              =    -162.71120512 Ry
     estimated scf accuracy    <       0.00003908 Ry

     iteration #  7     ecut=    60.00 Ry     beta= 0.50
     Davidson diagonalization with overlap

---- Real-time Memory Report at c_bands before calling an iterative solver
           135 MiB given to the printing process from OS
             0 MiB allocation reported by mallinfo(arena+hblkhd)
         45883 MiB available memory on the node where the printing process lives
------------------
     ethr =  2.17E-07,  avg # of iterations =  2.2

     negative rho (up, down):  1.875E-03 0.000E+00

     total cpu time spent up to now is       44.2 secs

     total energy              =    -162.71121689 Ry
     estimated scf accuracy    <       0.00000538 Ry

     iteration #  8     ecut=    60.00 Ry     beta= 0.50
     Davidson diagonalization with overlap

---- Real-time Memory Report at c_bands before calling an iterative solver
           135 MiB given to the printing process from OS
             0 MiB allocation reported by mallinfo(arena+hblkhd)
         45882 MiB available memory on the node where the printing process lives
------------------
     ethr =  2.99E-08,  avg # of iterations =  4.4

     negative rho (up, down):  1.882E-03 0.000E+00

     total cpu time spent up to now is       49.5 secs

     total energy              =    -162.71121858 Ry
     estimated scf accuracy    <       0.00000672 Ry

     iteration #  9     ecut=    60.00 Ry     beta= 0.50
     Davidson diagonalization with overlap

---- Real-time Memory Report at c_bands before calling an iterative solver
           135 MiB given to the printing process from OS
             0 MiB allocation reported by mallinfo(arena+hblkhd)
         45878 MiB available memory on the node where the printing process lives
------------------
     ethr =  2.99E-08,  avg # of iterations =  1.1

     negative rho (up, down):  1.882E-03 0.000E+00

     total cpu time spent up to now is       53.6 secs

     total energy              =    -162.71121906 Ry
     estimated scf accuracy    <       0.00000038 Ry

     iteration # 10     ecut=    60.00 Ry     beta= 0.50
     Davidson diagonalization with overlap

---- Real-time Memory Report at c_bands before calling an iterative solver
           135 MiB given to the printing process from OS
             0 MiB allocation reported by mallinfo(arena+hblkhd)
         45875 MiB available memory on the node where the printing process lives
------------------
     ethr =  2.09E-09,  avg # of iterations =  3.9

     negative rho (up, down):  1.882E-03 0.000E+00

     total cpu time spent up to now is       58.5 secs

     total energy              =    -162.71121928 Ry
     estimated scf accuracy    <       0.00000001 Ry

     iteration # 11     ecut=    60.00 Ry     beta= 0.50
     Davidson diagonalization with overlap

---- Real-time Memory Report at c_bands before calling an iterative solver
           135 MiB given to the printing process from OS
             0 MiB allocation reported by mallinfo(arena+hblkhd)
         45874 MiB available memory on the node where the printing process lives
------------------
     ethr =  7.74E-11,  avg # of iterations =  4.2

     negative rho (up, down):  1.882E-03 0.000E+00

     total cpu time spent up to now is       63.7 secs

     End of self-consistent calculation

          k = 0.0000 0.0000 0.0000 (  9961 PWs)   bands (ev):

   -22.4278 -22.3634  -9.3487  -7.2413  -6.3900  -6.3822  -6.3693  -6.3615
    -4.2510  -0.1781   1.9806   2.7855   2.8121   3.4214   3.6940   4.6502
     5.2832   6.6552   6.6772   8.3297   8.6435   8.6636   9.2296   9.9897
    10.0109  11.1342  11.2440  12.1957  12.2221  13.1034  14.6562  15.6315
    15.6449  15.7944  16.0272  16.5204  16.5441  17.6838  18.9816  19.2900

     occupation numbers 
     1.0000   1.0000   1.0000   1.0000   1.0000   1.0000   1.0000   1.0000
     1.0000   0.0000   0.0000   0.0000   0.0000   0.0000   0.0000   0.0000
     0.0000   0.0000   0.0000   0.0000   0.0000   0.0000   0.0000   0.0000
     0.0000   0.0000   0.0000   0.0000   0.0000   0.0000   0.0000   0.0000
     0.0000   0.0000   0.0000   0.0000   0.0000   0.0000   0.0000   0.0000

          k = 0.0444-0.0769 0.0000 ( 10002 PWs)   bands (ev):

   -22.3819 -22.3193  -9.2734  -7.1925  -6.6665  -6.6382  -6.4258  -6.4040
    -4.1092   0.1104   2.1458   2.9080   2.9554   3.5829   3.8092   4.7860
     5.3668   6.7182   6.7565   7.6449   8.4656   8.5909   9.3904   9.5035
    10.1691  11.1900  11.3753  11.9347  12.1849  13.4490  14.7571  15.0615
    15.8948  16.1524  16.2331  16.5386  16.8405  18.1660  19.0737  19.2407

     occupation numbers 
     1.0000   1.0000   1.0000   1.0000   1.0000   1.0000   1.0000   1.0000
     1.0000   0.0000   0.0000   0.0000   0.0000   0.0000   0.0000   0.0000
     0.0000   0.0000   0.0000   0.0000   0.0000   0.0000   0.0000   0.0000
     0.0000   0.0000   0.0000   0.0000   0.0000   0.0000   0.0000   0.0000
     0.0000   0.0000   0.0000   0.0000   0.0000   0.0000   0.0000   0.0000

          k = 0.0888-0.1537 0.0000 ( 10062 PWs)   bands (ev):

   -22.2519 -22.1940  -9.0831  -7.3733  -7.2675  -6.9756  -6.5386  -6.5140
    -3.8226   0.8128   2.5646   3.2581   3.3713   4.0238   4.1422   5.1140
     5.5967   5.9481   6.9106   7.2255   8.3343   8.5481   8.9188   9.2476
    10.3937  10.6066  11.7401  12.4087  12.4779  13.6978  14.2416  14.7609
    15.5505  15.7084  17.3743  17.4314  18.0117  18.4482  18.5748  19.1306

     occupation numbers 
     1.0000   1.0000   1.0000   1.0000   1.0000   1.0000   1.0000   1.0000
     1.0000   0.0000   0.0000   0.0000   0.0000   0.0000   0.0000   0.0000
     0.0000   0.0000   0.0000   0.0000   0.0000   0.0000   0.0000   0.0000
     0.0000   0.0000   0.0000   0.0000   0.0000   0.0000   0.0000   0.0000
     0.0000   0.0000   0.0000   0.0000   0.0000   0.0000   0.0000   0.0000

          k = 0.1333-0.2306 0.0000 ( 10102 PWs)   bands (ev):

   -22.0604 -22.0098  -8.9888  -8.1674  -7.7274  -6.7578  -6.6914  -6.6632
    -3.5225   1.6373   2.8798   3.7641   3.8877   4.2024   4.6686   5.0260
     5.9215   5.9678   7.1043   7.5188   7.9113   8.0719   8.6611   9.5589
    10.6598  11.1494  12.1549  12.3416  13.0955  13.1338  13.6344  15.2022
    15.4180  15.7859  16.0770  16.2734  16.4692  17.0044  17.6229  18.3116

     occupation numbers 
     1.0000   1.0000   1.0000   1.0000   1.0000   1.0000   1.0000   1.0000
     1.0000   0.0000   0.0000   0.0000   0.0000   0.0000   0.0000   0.0000
     0.0000   0.0000   0.0000   0.0000   0.0000   0.0000   0.0000   0.0000
     0.0000   0.0000   0.0000   0.0000   0.0000   0.0000   0.0000   0.0000
     0.0000   0.0000   0.0000   0.0000   0.0000   0.0000   0.0000   0.0000

          k = 0.1777-0.3074 0.0000 ( 10128 PWs)   bands (ev):

   -21.8453 -21.8030  -9.3451  -8.9273  -7.5690  -6.8466  -6.8147  -6.4870
    -3.2378   1.8034   2.3080   4.3042   4.3429   5.0234   5.3886   5.7291
     6.2245   6.4479   7.2681   7.4711   7.6138   8.4951   9.1107  10.3800
    10.9820  11.4761  11.5452  11.9798  13.2311  13.4324  13.7857  13.8493
    14.2249  14.3189  14.6141  15.2416  15.5973  16.1048  16.2509  16.8922

     occupation numbers 
     1.0000   1.0000   1.0000   1.0000   1.0000   1.0000   1.0000   1.0000
     1.0000   0.0000   0.0000   0.0000   0.0000   0.0000   0.0000   0.0000
     0.0000   0.0000   0.0000   0.0000   0.0000   0.0000   0.0000   0.0000
     0.0000   0.0000   0.0000   0.0000   0.0000   0.0000   0.0000   0.0000
     0.0000   0.0000   0.0000   0.0000   0.0000   0.0000   0.0000   0.0000

          k = 0.2221-0.3843 0.0000 ( 10152 PWs)   bands (ev):

   -21.6563 -21.6217  -9.8152  -9.5092  -7.1136  -6.9702  -6.9356  -6.2442
    -2.9680   0.4634   2.6131   4.8071   5.1296   5.8591   6.0980   6.2622
     6.7856   7.1316   7.2233   7.9095   8.4046   9.2553   9.7248  10.4814
    10.5844  11.2623  11.4097  11.6879  11.8104  11.9648  12.5740  12.6837
    13.2177  13.9465  14.4604  14.7426  15.3798  15.5058  16.1411  16.2982

     occupation numbers 
     1.0000   1.0000   1.0000   1.0000   1.0000   1.0000   1.0000   1.0000
     1.0000   0.0000   0.0000   0.0000   0.0000   0.0000   0.0000   0.0000
     0.0000   0.0000   0.0000   0.0000   0.0000   0.0000   0.0000   0.0000
     0.0000   0.0000   0.0000   0.0000   0.0000   0.0000   0.0000   0.0000
     0.0000   0.0000   0.0000   0.0000   0.0000   0.0000   0.0000   0.0000

          k = 0.2665-0.4612 0.0000 ( 10144 PWs)   bands (ev):

   -21.5447 -21.5148 -10.0963  -9.8242  -7.0381  -7.0020  -6.7636  -6.0991
    -2.7432  -0.4242   2.6585   5.0842   5.2608   6.5645   6.6148   6.9508
     7.6521   7.8898   8.1388   8.6423   8.8456   9.4075   9.4799   9.7875
    10.0120  10.3800  10.4090  11.1113  11.2878  11.7025  12.0103  12.1644
    13.1261  13.1686  13.9055  14.5689  15.1943  15.8895  16.1484  16.5186

     occupation numbers 
     1.0000   1.0000   1.0000   1.0000   1.0000   1.0000   1.0000   1.0000
     1.0000   0.0000   0.0000   0.0000   0.0000   0.0000   0.0000   0.0000
     0.0000   0.0000   0.0000   0.0000   0.0000   0.0000   0.0000   0.0000
     0.0000   0.0000   0.0000   0.0000   0.0000   0.0000   0.0000   0.0000
     0.0000   0.0000   0.0000   0.0000   0.0000   0.0000   0.0000   0.0000

          k = 0.0888 0.0000 0.0000 ( 10006 PWs)   bands (ev):

   -22.3818 -22.3192  -9.2732  -7.1923  -6.6610  -6.6326  -6.4320  -6.4102
    -4.1089   0.1104   2.1458   2.9082   2.9555   3.5829   3.8094   4.7862
     5.3670   6.7183   6.7574   7.6563   8.4655   8.5751   9.3911   9.5166
    10.1534  11.1977  11.3756  11.9451  12.1660  13.4503  14.7591  15.0590
    15.9054  16.1427  16.2151  16.5440  16.8495  18.1684  19.0761  19.2470

     occupation numbers 
     1.0000   1.0000   1.0000   1.0000   1.0000   1.0000   1.0000   1.0000
     1.0000   0.0000   0.0000   0.0000   0.0000   0.0000   0.0000   0.0000
     0.0000   0.0000   0.0000   0.0000   0.0000   0.0000   0.0000   0.0000
     0.0000   0.0000   0.0000   0.0000   0.0000   0.0000   0.0000   0.0000
     0.0000   0.0000   0.0000   0.0000   0.0000   0.0000   0.0000   0.0000

          k = 0.1333-0.0769 0.0000 ( 10027 PWs)   bands (ev):

   -22.2938 -22.2343  -9.1384  -7.2033  -7.0831  -6.9777  -6.5220  -6.4969
    -3.9018   0.6043   2.4417   3.1452   3.2365   3.8914   4.0337   5.0334
     5.5244   6.3580   6.8534   7.1442   8.1342   8.7118   8.8477   9.5893
    10.4652  10.8182  11.6242  11.7272  12.3815  13.9308  14.7125  15.1698
    15.2214  15.9020  16.1433  17.5084  17.9532  18.9440  19.1247  19.2955

     occupation numbers 
     1.0000   1.0000   1.0000   1.0000   1.0000   1.0000   1.0000   1.0000
     1.0000   0.0000   0.0000   0.0000   0.0000   0.0000   0.0000   0.0000
     0.0000   0.0000   0.0000   0.0000   0.0000   0.0000   0.0000   0.0000
     0.0000   0.0000   0.0000   0.0000   0.0000   0.0000   0.0000   0.0000
     0.0000   0.0000   0.0000   0.0000   0.0000   0.0000   0.0000   0.0000

          k = 0.1777-0.1537 0.0000 ( 10076 PWs)   bands (ev):

   -22.1327 -22.0793  -8.9734  -7.8429  -7.5898  -6.8477  -6.6905  -6.6575
    -3.6215   1.3719   2.9129   3.5762   3.7664   4.2749   4.4619   4.9337
     5.7972   5.8122   7.0672   7.1082   7.8176   8.0834   9.2756   9.4853
    10.4608  10.9468  11.9869  12.0805  12.7779  13.6057  14.2871  14.7949
    15.2806  16.1109  16.9528  17.4311  17.4678  17.8662  18.3622  18.4430

     occupation numbers 
     1.0000   1.0000   1.0000   1.0000   1.0000   1.0000   1.0000   1.0000
     1.0000   0.0000   0.0000   0.0000   0.0000   0.0000   0.0000   0.0000
     0.0000   0.0000   0.0000   0.0000   0.0000   0.0000   0.0000   0.0000
     0.0000   0.0000   0.0000   0.0000   0.0000   0.0000   0.0000   0.0000
     0.0000   0.0000   0.0000   0.0000   0.0000   0.0000   0.0000   0.0000

          k = 0.2221-0.2306 0.0000 ( 10097 PWs)   bands (ev):

   -21.9286 -21.8831  -9.1208  -8.5862  -7.6788  -6.8870  -6.8524  -6.5905
    -3.3361   2.1485   2.5926   3.9832   4.0953   4.6250   5.0917   5.4638
     6.1584   6.1732   6.7530   7.1681   8.1597   8.2290   8.9376  10.0386
    10.9495  11.3167  11.9796  12.2794  13.0175  13.2552  14.3282  14.8510
    14.8807  15.0656  15.2030  15.8392  15.9015  16.6609  16.7701  17.4884

     occupation numbers 
     1.0000   1.0000   1.0000   1.0000   1.0000   1.0000   1.0000   1.0000
     1.0000   0.0000   0.0000   0.0000   0.0000   0.0000   0.0000   0.0000
     0.0000   0.0000   0.0000   0.0000   0.0000   0.0000   0.0000   0.0000
     0.0000   0.0000   0.0000   0.0000   0.0000   0.0000   0.0000   0.0000
     0.0000   0.0000   0.0000   0.0000   0.0000   0.0000   0.0000   0.0000

          k = 0.2665-0.3074 0.0000 ( 10137 PWs)   bands (ev):

   -21.7252 -21.6878  -9.5667  -9.2259  -7.3124  -7.0527  -7.0236  -6.3328
    -3.0573   1.1951   2.6600   4.6346   4.7572   5.6468   5.6991   5.8786
     6.4340   6.4859   7.3327   7.5594   8.2085   8.9033   9.5985  10.6288
    11.1752  11.2267  11.4410  12.2051  12.6298  12.7136  13.0556  13.5032
    13.8846  14.0703  14.5368  15.1144  15.2092  15.5397  16.0609  16.8858

     occupation numbers 
     1.0000   1.0000   1.0000   1.0000   1.0000   1.0000   1.0000   1.0000
     1.0000   0.0000   0.0000   0.0000   0.0000   0.0000   0.0000   0.0000
     0.0000   0.0000   0.0000   0.0000   0.0000   0.0000   0.0000   0.0000
     0.0000   0.0000   0.0000   0.0000   0.0000   0.0000   0.0000   0.0000
     0.0000   0.0000   0.0000   0.0000   0.0000   0.0000   0.0000   0.0000

          k = 0.3110-0.3843 0.0000 ( 10116 PWs)   bands (ev):

   -21.5735 -21.5423  -9.9349  -9.6555  -7.2095  -7.1418  -6.8490  -6.1371
    -2.7869   0.0257   2.8193   5.0936   5.2740   5.6951   6.4172   6.8154
     7.0960   7.3882   7.9084   8.3477   8.9279   9.5799  10.0198  10.2309
    10.4968  10.8092  10.8628  11.2377  11.5902  11.6982  12.4479  12.4754
    13.3308  13.3999  14.1292  15.0587  15.0873  15.6625  15.6733  16.0149

     occupation numbers 
     1.0000   1.0000   1.0000   1.0000   1.0000   1.0000   1.0000   1.0000
     1.0000   0.0000   0.0000   0.0000   0.0000   0.0000   0.0000   0.0000
     0.0000   0.0000   0.0000   0.0000   0.0000   0.0000   0.0000   0.0000
     0.0000   0.0000   0.0000   0.0000   0.0000   0.0000   0.0000   0.0000
     0.0000   0.0000   0.0000   0.0000   0.0000   0.0000   0.0000   0.0000

          k =-0.2221 0.5380 0.0000 ( 10126 PWs)   bands (ev):

   -21.5171 -21.4883 -10.0707  -9.8067  -7.2480  -7.1838  -6.6672  -6.0638
    -2.6365  -0.4696   2.8334   5.1784   5.2425   6.0924   6.7217   6.9760
     8.3080   8.3233   8.5956   8.7741   8.8768   9.2800   9.3370   9.8158
     9.9201  10.4387  10.4643  11.0256  11.3403  11.5147  12.0143  12.3152
    12.9750  13.5715  14.1466  14.3090  15.1352  15.4165  15.8325  16.4450

     occupation numbers 
     1.0000   1.0000   1.0000   1.0000   1.0000   1.0000   1.0000   1.0000
     1.0000   0.0000   0.0000   0.0000   0.0000   0.0000   0.0000   0.0000
     0.0000   0.0000   0.0000   0.0000   0.0000   0.0000   0.0000   0.0000
     0.0000   0.0000   0.0000   0.0000   0.0000   0.0000   0.0000   0.0000
     0.0000   0.0000   0.0000   0.0000   0.0000   0.0000   0.0000   0.0000

          k =-0.1777 0.4612 0.0000 ( 10116 PWs)   bands (ev):

   -21.5738 -21.5425  -9.9344  -9.6549  -7.2099  -7.1421  -6.8495  -6.1375
    -2.7876   0.0276   2.8191   5.0933   5.2725   5.6943   6.4177   6.8137
     7.0940   7.3868   7.9075   8.3469   8.9283   9.5789  10.0216  10.2310
    10.4996  10.8116  10.8637  11.2382  11.5922  11.6982  12.4488  12.4779
    13.3318  13.4025  14.1307  15.0595  15.0864  15.6677  15.6743  16.0083

     occupation numbers 
     1.0000   1.0000   1.0000   1.0000   1.0000   1.0000   1.0000   1.0000
     1.0000   0.0000   0.0000   0.0000   0.0000   0.0000   0.0000   0.0000
     0.0000   0.0000   0.0000   0.0000   0.0000   0.0000   0.0000   0.0000
     0.0000   0.0000   0.0000   0.0000   0.0000   0.0000   0.0000   0.0000
     0.0000   0.0000   0.0000   0.0000   0.0000   0.0000   0.0000   0.0000

          k =-0.1333 0.3843 0.0000 ( 10141 PWs)   bands (ev):

   -21.7257 -21.6882  -9.5661  -9.2250  -7.3130  -7.0532  -7.0239  -6.3333
    -3.0581   1.1978   2.6596   4.6341   4.7566   5.6437   5.6957   5.8776
     6.4332   6.4857   7.3320   7.5598   8.2101   8.9033   9.5991  10.6278
    11.1776  11.2257  11.4415  12.2067  12.6334  12.7168  13.0590  13.5058
    13.8853  14.0729  14.5407  15.1150  15.2139  15.5331  16.0629  16.8827

     occupation numbers 
     1.0000   1.0000   1.0000   1.0000   1.0000   1.0000   1.0000   1.0000
     1.0000   0.0000   0.0000   0.0000   0.0000   0.0000   0.0000   0.0000
     0.0000   0.0000   0.0000   0.0000   0.0000   0.0000   0.0000   0.0000
     0.0000   0.0000   0.0000   0.0000   0.0000   0.0000   0.0000   0.0000
     0.0000   0.0000   0.0000   0.0000   0.0000   0.0000   0.0000   0.0000

          k =-0.0888 0.3074 0.0000 ( 10097 PWs)   bands (ev):

   -21.9291 -21.8835  -9.1209  -8.5857  -7.6791  -6.8867  -6.8519  -6.5912
    -3.3369   2.1485   2.5948   3.9828   4.0942   4.6237   5.0905   5.4634
     6.1524   6.1726   6.7512   7.1682   8.1609   8.2309   8.9407  10.0381
    10.9495  11.3163  11.9811  12.2808  13.0185  13.2573  14.3328  14.8522
    14.8845  15.0631  15.2073  15.8432  15.9026  16.6616  16.7684  17.4915

     occupation numbers 
     1.0000   1.0000   1.0000   1.0000   1.0000   1.0000   1.0000   1.0000
     1.0000   0.0000   0.0000   0.0000   0.0000   0.0000   0.0000   0.0000
     0.0000   0.0000   0.0000   0.0000   0.0000   0.0000   0.0000   0.0000
     0.0000   0.0000   0.0000   0.0000   0.0000   0.0000   0.0000   0.0000
     0.0000   0.0000   0.0000   0.0000   0.0000   0.0000   0.0000   0.0000

          k =-0.0444 0.2306 0.0000 ( 10078 PWs)   bands (ev):

   -22.1331 -22.0797  -8.9744  -7.8439  -7.5905  -6.8480  -6.6885  -6.6556
    -3.6221   1.3720   2.9128   3.5753   3.7655   4.2747   4.4609   4.9338
     5.7969   5.8114   7.0594   7.1074   7.8179   8.0829   9.2756   9.4930
    10.4612  10.9506  11.9840  12.0802  12.7818  13.6101  14.2909  14.7874
    15.2857  16.1083  16.9660  17.4360  17.4756  17.8701  18.3680  18.4395

     occupation numbers 
     1.0000   1.0000   1.0000   1.0000   1.0000   1.0000   1.0000   1.0000
     1.0000   0.0000   0.0000   0.0000   0.0000   0.0000   0.0000   0.0000
     0.0000   0.0000   0.0000   0.0000   0.0000   0.0000   0.0000   0.0000
     0.0000   0.0000   0.0000   0.0000   0.0000   0.0000   0.0000   0.0000
     0.0000   0.0000   0.0000   0.0000   0.0000   0.0000   0.0000   0.0000

          k = 0.0000 0.1537 0.0000 ( 10029 PWs)   bands (ev):

   -22.2941 -22.2346  -9.1390  -7.2057  -7.0867  -6.9794  -6.5170  -6.4919
    -3.9023   0.6043   2.4416   3.1446   3.2360   3.8912   4.0331   5.0328
     5.5237   6.3532   6.8531   7.1421   8.1363   8.7102   8.8419   9.5929
    10.4771  10.8188  11.6236  11.7340  12.3768  13.9295  14.7099  15.1730
    15.2318  15.8968  16.1604  17.5038  17.9471  18.9522  19.1134  19.2847

     occupation numbers 
     1.0000   1.0000   1.0000   1.0000   1.0000   1.0000   1.0000   1.0000
     1.0000   0.0000   0.0000   0.0000   0.0000   0.0000   0.0000   0.0000
     0.0000   0.0000   0.0000   0.0000   0.0000   0.0000   0.0000   0.0000
     0.0000   0.0000   0.0000   0.0000   0.0000   0.0000   0.0000   0.0000
     0.0000   0.0000   0.0000   0.0000   0.0000   0.0000   0.0000   0.0000

          k = 0.1777 0.0000 0.0000 ( 10066 PWs)   bands (ev):

   -22.2515 -22.1936  -9.0821  -7.3686  -7.2627  -6.9747  -6.5455  -6.5208
    -3.8218   0.8127   2.5649   3.2589   3.3720   4.0239   4.1431   5.1156
     5.5976   5.9582   6.9108   7.2262   8.3167   8.5535   8.9232   9.2511
    10.3996  10.5917  11.7411  12.3932  12.4815  13.6938  14.2532  14.7605
    15.5525  15.6903  17.3666  17.4344  18.0169  18.4667  18.5936  19.1543

     occupation numbers 
     1.0000   1.0000   1.0000   1.0000   1.0000   1.0000   1.0000   1.0000
     1.0000   0.0000   0.0000   0.0000   0.0000   0.0000   0.0000   0.0000
     0.0000   0.0000   0.0000   0.0000   0.0000   0.0000   0.0000   0.0000
     0.0000   0.0000   0.0000   0.0000   0.0000   0.0000   0.0000   0.0000
     0.0000   0.0000   0.0000   0.0000   0.0000   0.0000   0.0000   0.0000

          k = 0.2221-0.0769 0.0000 ( 10082 PWs)   bands (ev):

   -22.1324 -22.0790  -8.9724  -7.8401  -7.5874  -6.8473  -6.6947  -6.6616
    -3.6209   1.3717   2.9133   3.5769   3.7669   4.2759   4.4626   4.9384
     5.7991   5.8129   7.0602   7.1078   7.8150   8.0874   9.2769   9.4867
    10.4633  10.9395  11.9769  12.0815  12.7824  13.6152  14.2839  14.7834
    15.2793  16.1089  16.9635  17.4542  17.4842  17.8888  18.3853  18.4429

     occupation numbers 
     1.0000   1.0000   1.0000   1.0000   1.0000   1.0000   1.0000   1.0000
     1.0000   0.0000   0.0000   0.0000   0.0000   0.0000   0.0000   0.0000
     0.0000   0.0000   0.0000   0.0000   0.0000   0.0000   0.0000   0.0000
     0.0000   0.0000   0.0000   0.0000   0.0000   0.0000   0.0000   0.0000
     0.0000   0.0000   0.0000   0.0000   0.0000   0.0000   0.0000   0.0000

          k = 0.2665-0.1537 0.0000 ( 10099 PWs)   bands (ev):

   -21.9582 -21.9114  -9.0281  -8.4125  -7.6715  -6.9739  -6.9318  -6.6261
    -3.3653   2.1123   3.2132   3.6754   4.0212   4.4681   4.9932   5.2951
     5.9384   6.1844   6.4955   7.2186   7.9532   8.3454   9.1281   9.9004
    10.7971  11.2037  12.3884  12.4123  12.7248  13.1119  14.5074  15.0327
    15.4047  16.1575  16.2879  16.6289  16.6523  16.7661  16.8749  17.0836

     occupation numbers 
     1.0000   1.0000   1.0000   1.0000   1.0000   1.0000   1.0000   1.0000
     1.0000   0.0000   0.0000   0.0000   0.0000   0.0000   0.0000   0.0000
     0.0000   0.0000   0.0000   0.0000   0.0000   0.0000   0.0000   0.0000
     0.0000   0.0000   0.0000   0.0000   0.0000   0.0000   0.0000   0.0000
     0.0000   0.0000   0.0000   0.0000   0.0000   0.0000   0.0000   0.0000

          k = 0.3110-0.2306 0.0000 ( 10147 PWs)   bands (ev):

   -21.7642 -21.7250  -9.3370  -8.9548  -7.3917  -7.2694  -7.2285  -6.3823
    -3.0880   2.0322   2.7829   4.0940   4.5336   5.2444   5.4747   5.7661
     6.2126   6.5268   7.2886   7.3385   8.3585   8.6237   9.2744  10.6142
    11.1563  11.3319  11.4993  12.9255  13.2618  13.5462  13.9614  14.0268
    14.3835  14.6829  15.2117  15.2555  15.4693  15.7904  15.9764  15.9976

     occupation numbers 
     1.0000   1.0000   1.0000   1.0000   1.0000   1.0000   1.0000   1.0000
     1.0000   0.0000   0.0000   0.0000   0.0000   0.0000   0.0000   0.0000
     0.0000   0.0000   0.0000   0.0000   0.0000   0.0000   0.0000   0.0000
     0.0000   0.0000   0.0000   0.0000   0.0000   0.0000   0.0000   0.0000
     0.0000   0.0000   0.0000   0.0000   0.0000   0.0000   0.0000   0.0000

          k = 0.3554-0.3074 0.0000 ( 10154 PWs)   bands (ev):

   -21.5954 -21.5631  -9.6657  -9.3757  -7.5683  -7.4746  -6.9247  -6.1666
    -2.7856   0.7380   3.1417   4.2534   5.1559   5.5531   6.3582   6.5733
     7.0343   7.0971   7.7835   8.0753   8.6589   9.4090  10.2329  10.3445
    10.8577  11.3782  11.8260  11.8989  12.1467  12.4985  12.9164  13.1514
    13.5913  14.2116  14.3671  14.5448  15.0105  15.1705  15.3700  15.5847

     occupation numbers 
     1.0000   1.0000   1.0000   1.0000   1.0000   1.0000   1.0000   1.0000
     1.0000   0.0000   0.0000   0.0000   0.0000   0.0000   0.0000   0.0000
     0.0000   0.0000   0.0000   0.0000   0.0000   0.0000   0.0000   0.0000
     0.0000   0.0000   0.0000   0.0000   0.0000   0.0000   0.0000   0.0000
     0.0000   0.0000   0.0000   0.0000   0.0000   0.0000   0.0000   0.0000

          k =-0.1777 0.6149 0.0000 ( 10128 PWs)   bands (ev):

   -21.4967 -21.4684  -9.8607  -9.6059  -7.7155  -7.6115  -6.6182  -6.0394
    -2.4988  -0.1570   3.2448   4.1830   5.5656   6.0457   6.6488   7.1740
     8.0501   8.1709   8.6384   8.7888   9.5824   9.5978   9.8536  10.1135
    10.2398  10.4995  10.9874  11.2331  11.4046  11.6787  12.6819  12.8284
    13.5391  13.5825  13.8719  14.4784  14.5376  15.0782  15.0795  15.4860

     occupation numbers 
     1.0000   1.0000   1.0000   1.0000   1.0000   1.0000   1.0000   1.0000
     1.0000   0.0000   0.0000   0.0000   0.0000   0.0000   0.0000   0.0000
     0.0000   0.0000   0.0000   0.0000   0.0000   0.0000   0.0000   0.0000
     0.0000   0.0000   0.0000   0.0000   0.0000   0.0000   0.0000   0.0000
     0.0000   0.0000   0.0000   0.0000   0.0000   0.0000   0.0000   0.0000

          k =-0.1333 0.5380 0.0000 ( 10128 PWs)   bands (ev):

   -21.4970 -21.4686  -9.8602  -9.6053  -7.7157  -7.6117  -6.6188  -6.0397
    -2.5000  -0.1547   3.2446   4.1819   5.5650   6.0437   6.6503   7.1753
     8.0454   8.1678   8.6355   8.7866   9.5814   9.5994   9.8558  10.1169
    10.2438  10.5000  10.9875  11.2369  11.4057  11.6772  12.6853  12.8308
    13.5379  13.5807  13.8756  14.4753  14.5366  15.0753  15.0837  15.4853

     occupation numbers 
     1.0000   1.0000   1.0000   1.0000   1.0000   1.0000   1.0000   1.0000
     1.0000   0.0000   0.0000   0.0000   0.0000   0.0000   0.0000   0.0000
     0.0000   0.0000   0.0000   0.0000   0.0000   0.0000   0.0000   0.0000
     0.0000   0.0000   0.0000   0.0000   0.0000   0.0000   0.0000   0.0000
     0.0000   0.0000   0.0000   0.0000   0.0000   0.0000   0.0000   0.0000

          k =-0.0888 0.4612 0.0000 ( 10152 PWs)   bands (ev):

   -21.5961 -21.5638  -9.6648  -9.3744  -7.5686  -7.4748  -6.9261  -6.1674
    -2.7875   0.7430   3.1411   4.2505   5.1548   5.5495   6.3595   6.5692
     7.0321   7.0949   7.7854   8.0739   8.6598   9.4070  10.2329  10.3430
    10.8563  11.3841  11.8278  11.9051  12.1499  12.4988  12.9231  13.1561
    13.5941  14.2072  14.3709  14.5452  15.0091  15.1672  15.3665  15.5878

     occupation numbers 
     1.0000   1.0000   1.0000   1.0000   1.0000   1.0000   1.0000   1.0000
     1.0000   0.0000   0.0000   0.0000   0.0000   0.0000   0.0000   0.0000
     0.0000   0.0000   0.0000   0.0000   0.0000   0.0000   0.0000   0.0000
     0.0000   0.0000   0.0000   0.0000   0.0000   0.0000   0.0000   0.0000
     0.0000   0.0000   0.0000   0.0000   0.0000   0.0000   0.0000   0.0000

          k =-0.0444 0.3843 0.0000 ( 10137 PWs)   bands (ev):

   -21.7651 -21.7260  -9.3369  -8.9540  -7.3919  -7.2698  -7.2276  -6.3834
    -3.0897   2.0374   2.7827   4.0914   4.5319   5.2399   5.4707   5.7635
     6.2103   6.5273   7.2889   7.3365   8.3662   8.6228   9.2740  10.6114
    11.1572  11.3335  11.4975  12.9287  13.2623  13.5466  13.9678  14.0328
    14.3896  14.6850  15.2072  15.2564  15.4746  15.7917  15.9659  15.9920

     occupation numbers 
     1.0000   1.0000   1.0000   1.0000   1.0000   1.0000   1.0000   1.0000
     1.0000   0.0000   0.0000   0.0000   0.0000   0.0000   0.0000   0.0000
     0.0000   0.0000   0.0000   0.0000   0.0000   0.0000   0.0000   0.0000
     0.0000   0.0000   0.0000   0.0000   0.0000   0.0000   0.0000   0.0000
     0.0000   0.0000   0.0000   0.0000   0.0000   0.0000   0.0000   0.0000

          k = 0.0000 0.3074 0.0000 ( 10101 PWs)   bands (ev):

   -21.9591 -21.9123  -9.0297  -8.4137  -7.6727  -6.9707  -6.9284  -6.6272
    -3.3667   2.1127   3.2154   3.6737   4.0191   4.4656   4.9908   5.2937
     5.9334   6.1832   6.4949   7.2184   7.9529   8.3453   9.1352   9.8991
    10.7963  11.2065  12.3906  12.4134  12.7260  13.1119  14.5036  15.0318
    15.4215  16.1529  16.2852  16.6277  16.6490  16.7604  16.8707  17.0829

     occupation numbers 
     1.0000   1.0000   1.0000   1.0000   1.0000   1.0000   1.0000   1.0000
     1.0000   0.0000   0.0000   0.0000   0.0000   0.0000   0.0000   0.0000
     0.0000   0.0000   0.0000   0.0000   0.0000   0.0000   0.0000   0.0000
     0.0000   0.0000   0.0000   0.0000   0.0000   0.0000   0.0000   0.0000
     0.0000   0.0000   0.0000   0.0000   0.0000   0.0000   0.0000   0.0000

          k = 0.2665 0.0000 0.0000 ( 10104 PWs)   bands (ev):

   -22.0596 -22.0089  -8.9858  -8.1626  -7.7242  -6.7569  -6.6993  -6.6710
    -3.5211   1.6364   2.8813   3.7661   3.8906   4.2059   4.6706   5.0303
     5.9230   5.9691   7.1044   7.5195   7.8915   8.0788   8.6662   9.5617
    10.6629  11.1344  12.1586  12.3377  13.1035  13.1214  13.6342  15.2084
    15.4009  15.7943  16.0943  16.2862  16.4883  17.0243  17.6405  18.3209

     occupation numbers 
     1.0000   1.0000   1.0000   1.0000   1.0000   1.0000   1.0000   1.0000
     1.0000   0.0000   0.0000   0.0000   0.0000   0.0000   0.0000   0.0000
     0.0000   0.0000   0.0000   0.0000   0.0000   0.0000   0.0000   0.0000
     0.0000   0.0000   0.0000   0.0000   0.0000   0.0000   0.0000   0.0000
     0.0000   0.0000   0.0000   0.0000   0.0000   0.0000   0.0000   0.0000

          k = 0.3110-0.0769 0.0000 ( 10101 PWs)   bands (ev):

   -21.9279 -21.8823  -9.1174  -8.5821  -7.6768  -6.8939  -6.8590  -6.5898
    -3.3348   2.1469   2.5969   3.9855   4.0974   4.6268   5.0936   5.4655
     6.1516   6.1738   6.7489   7.1697   8.1654   8.2246   8.9419  10.0409
    10.9507  11.3063  11.9836  12.2729  13.0204  13.2590  14.3293  14.8536
    14.8930  15.0717  15.2195  15.8584  15.9100  16.6728  16.7708  17.5071

     occupation numbers 
     1.0000   1.0000   1.0000   1.0000   1.0000   1.0000   1.0000   1.0000
     1.0000   0.0000   0.0000   0.0000   0.0000   0.0000   0.0000   0.0000
     0.0000   0.0000   0.0000   0.0000   0.0000   0.0000   0.0000   0.0000
     0.0000   0.0000   0.0000   0.0000   0.0000   0.0000   0.0000   0.0000
     0.0000   0.0000   0.0000   0.0000   0.0000   0.0000   0.0000   0.0000

          k = 0.3554-0.1537 0.0000 ( 10134 PWs)   bands (ev):

   -21.7637 -21.7246  -9.3348  -8.9525  -7.3902  -7.2738  -7.2323  -6.3818
    -3.0869   2.0358   2.7814   4.0913   4.5352   5.2424   5.4742   5.7669
     6.2124   6.5268   7.2916   7.3367   8.3595   8.6260   9.2773  10.6142
    11.1527  11.3330  11.4998  12.9250  13.2656  13.5468  13.9758  14.0437
    14.3976  14.6910  15.1984  15.2643  15.4813  15.7817  15.9573  15.9804

     occupation numbers 
     1.0000   1.0000   1.0000   1.0000   1.0000   1.0000   1.0000   1.0000
     1.0000   0.0000   0.0000   0.0000   0.0000   0.0000   0.0000   0.0000
     0.0000   0.0000   0.0000   0.0000   0.0000   0.0000   0.0000   0.0000
     0.0000   0.0000   0.0000   0.0000   0.0000   0.0000   0.0000   0.0000
     0.0000   0.0000   0.0000   0.0000   0.0000   0.0000   0.0000   0.0000

          k = 0.3998-0.2306 0.0000 ( 10159 PWs)   bands (ev):

   -21.6033 -21.5705  -9.5068  -9.2068  -7.7724  -7.6772  -6.9568  -6.1775
    -2.7781   1.2098   3.3045   3.5809   5.1749   5.5626   6.4272   6.4659
     6.8800   7.1859   7.9263   7.9561   8.3950   9.3323  10.1797  10.1992
    10.7759  11.9029  12.0075  12.9920  13.1088  13.1172  13.5156  13.5462
    13.5663  13.8046  14.0730  14.3993  14.4991  14.5650  14.8037  15.2871

     occupation numbers 
     1.0000   1.0000   1.0000   1.0000   1.0000   1.0000   1.0000   1.0000
     1.0000   0.0000   0.0000   0.0000   0.0000   0.0000   0.0000   0.0000
     0.0000   0.0000   0.0000   0.0000   0.0000   0.0000   0.0000   0.0000
     0.0000   0.0000   0.0000   0.0000   0.0000   0.0000   0.0000   0.0000
     0.0000   0.0000   0.0000   0.0000   0.0000   0.0000   0.0000   0.0000

          k =-0.1333 0.6917 0.0000 ( 10140 PWs)   bands (ev):

   -21.4859 -21.4579  -9.5807  -9.3312  -8.1712  -8.0439  -6.6056  -6.0273
    -2.4003   0.2730   3.2049   3.5976   5.9032   6.2071   6.4804   7.5362
     7.8225   7.9917   8.4650   8.6531   9.4624   9.6140  10.1922  10.8325
    10.9654  11.3479  11.4687  11.5248  12.3058  12.3696  12.6966  12.9987
    13.1161  13.2327  13.5937  13.8053  13.9330  14.2074  14.4058  14.6583

     occupation numbers 
     1.0000   1.0000   1.0000   1.0000   1.0000   1.0000   1.0000   1.0000
     1.0000   0.0000   0.0000   0.0000   0.0000   0.0000   0.0000   0.0000
     0.0000   0.0000   0.0000   0.0000   0.0000   0.0000   0.0000   0.0000
     0.0000   0.0000   0.0000   0.0000   0.0000   0.0000   0.0000   0.0000
     0.0000   0.0000   0.0000   0.0000   0.0000   0.0000   0.0000   0.0000

          k =-0.0888 0.6149 0.0000 ( 10141 PWs)   bands (ev):

   -21.4430 -21.4167  -9.5907  -9.3612  -8.3326  -8.1897  -6.4668  -5.9723
    -2.1570  -0.2084   3.0974   3.6926   6.1068   6.5107   6.7091   7.5262
     8.3189   9.2302   9.3715   9.4437   9.6686   9.7587   9.9455   9.9686
    10.5101  10.9018  10.9495  11.1130  12.0830  12.2428  12.5877  12.5978
    12.9591  12.9687  13.0689  13.7668  13.8389  14.2148  14.5442  14.6548

     occupation numbers 
     1.0000   1.0000   1.0000   1.0000   1.0000   1.0000   1.0000   1.0000
     1.0000   0.0000   0.0000   0.0000   0.0000   0.0000   0.0000   0.0000
     0.0000   0.0000   0.0000   0.0000   0.0000   0.0000   0.0000   0.0000
     0.0000   0.0000   0.0000   0.0000   0.0000   0.0000   0.0000   0.0000
     0.0000   0.0000   0.0000   0.0000   0.0000   0.0000   0.0000   0.0000

          k =-0.0444 0.5380 0.0000 ( 10135 PWs)   bands (ev):

   -21.4867 -21.4586  -9.5804  -9.3305  -8.1706  -8.0434  -6.6071  -6.0281
    -2.4037   0.2789   3.2034   3.5973   5.9013   6.2026   6.4833   7.5401
     7.8181   7.9868   8.4611   8.6515   9.4600   9.6090  10.1904  10.8292
    10.9745  11.3504  11.4765  11.5275  12.3127  12.3674  12.7030  12.9963
    13.1122  13.2292  13.5912  13.8049  13.9322  14.2146  14.4027  14.6619

     occupation numbers 
     1.0000   1.0000   1.0000   1.0000   1.0000   1.0000   1.0000   1.0000
     1.0000   0.0000   0.0000   0.0000   0.0000   0.0000   0.0000   0.0000
     0.0000   0.0000   0.0000   0.0000   0.0000   0.0000   0.0000   0.0000
     0.0000   0.0000   0.0000   0.0000   0.0000   0.0000   0.0000   0.0000
     0.0000   0.0000   0.0000   0.0000   0.0000   0.0000   0.0000   0.0000

          k = 0.0000 0.4612 0.0000 ( 10157 PWs)   bands (ev):

   -21.6045 -21.5717  -9.5073  -9.2067  -7.7703  -7.6750  -6.9590  -6.1788
    -2.7815   1.2157   3.3046   3.5797   5.1726   5.5585   6.4291   6.4603
     6.8760   7.1822   7.9227   7.9655   8.3924   9.3296  10.1819  10.1953
    10.7742  11.8999  12.0047  12.9927  13.1088  13.1198  13.5199  13.5447
    13.5675  13.8068  14.0753  14.3985  14.5009  14.5629  14.8037  15.2865

     occupation numbers 
     1.0000   1.0000   1.0000   1.0000   1.0000   1.0000   1.0000   1.0000
     1.0000   0.0000   0.0000   0.0000   0.0000   0.0000   0.0000   0.0000
     0.0000   0.0000   0.0000   0.0000   0.0000   0.0000   0.0000   0.0000
     0.0000   0.0000   0.0000   0.0000   0.0000   0.0000   0.0000   0.0000
     0.0000   0.0000   0.0000   0.0000   0.0000   0.0000   0.0000   0.0000

          k = 0.3554 0.0000 0.0000 ( 10126 PWs)   bands (ev):

   -21.8439 -21.8017  -9.3405  -8.9229  -7.5667  -6.8555  -6.8235  -6.4856
    -3.2352   1.8072   2.3051   4.3083   4.3463   5.0267   5.3918   5.7285
     6.2257   6.4477   7.2724   7.4496   7.6188   8.5018   9.1158  10.3834
    10.9813  11.4814  11.5284  11.9805  13.2383  13.4419  13.8004  13.8628
    14.2155  14.3280  14.6302  15.2542  15.5824  16.1180  16.2591  16.8963

     occupation numbers 
     1.0000   1.0000   1.0000   1.0000   1.0000   1.0000   1.0000   1.0000
     1.0000   0.0000   0.0000   0.0000   0.0000   0.0000   0.0000   0.0000
     0.0000   0.0000   0.0000   0.0000   0.0000   0.0000   0.0000   0.0000
     0.0000   0.0000   0.0000   0.0000   0.0000   0.0000   0.0000   0.0000
     0.0000   0.0000   0.0000   0.0000   0.0000   0.0000   0.0000   0.0000

          k = 0.3998-0.0769 0.0000 ( 10135 PWs)   bands (ev):

   -21.7240 -21.6865  -9.5622  -9.2215  -7.3108  -7.0608  -7.0319  -6.3316
    -3.0542   1.1989   2.6560   4.6389   4.7588   5.6426   5.6956   5.8808
     6.4324   6.4885   7.3264   7.5656   8.2129   8.9090   9.6034  10.6291
    11.1751  11.2300  11.4297  12.2134  12.6433  12.7285  13.0616  13.5158
    13.8936  14.0771  14.5452  15.1106  15.2200  15.5336  16.0714  16.8810

     occupation numbers 
     1.0000   1.0000   1.0000   1.0000   1.0000   1.0000   1.0000   1.0000
     1.0000   0.0000   0.0000   0.0000   0.0000   0.0000   0.0000   0.0000
     0.0000   0.0000   0.0000   0.0000   0.0000   0.0000   0.0000   0.0000
     0.0000   0.0000   0.0000   0.0000   0.0000   0.0000   0.0000   0.0000
     0.0000   0.0000   0.0000   0.0000   0.0000   0.0000   0.0000   0.0000

          k = 0.4442-0.1537 0.0000 ( 10157 PWs)   bands (ev):

   -21.5944 -21.5621  -9.6619  -9.3721  -7.5744  -7.4809  -6.9237  -6.1657
    -2.7823   0.7402   3.1383   4.2450   5.1583   5.5513   6.3608   6.5747
     7.0383   7.0919   7.7856   8.0800   8.6659   9.4104  10.2310  10.3478
    10.8549  11.3905  11.8320  11.9137  12.1576  12.5041  12.9300  13.1584
    13.5897  14.2060  14.3690  14.5494  15.0069  15.1641  15.3549  15.5850

     occupation numbers 
     1.0000   1.0000   1.0000   1.0000   1.0000   1.0000   1.0000   1.0000
     1.0000   0.0000   0.0000   0.0000   0.0000   0.0000   0.0000   0.0000
     0.0000   0.0000   0.0000   0.0000   0.0000   0.0000   0.0000   0.0000
     0.0000   0.0000   0.0000   0.0000   0.0000   0.0000   0.0000   0.0000
     0.0000   0.0000   0.0000   0.0000   0.0000   0.0000   0.0000   0.0000

          k =-0.0888 0.7686 0.0000 ( 10143 PWs)   bands (ev):

   -21.4854 -21.4573  -9.5782  -9.3288  -8.1748  -8.0476  -6.6050  -6.0268
    -2.3976   0.2725   3.2009   3.5961   5.9023   6.2053   6.4846   7.5334
     7.8243   7.9935   8.4682   8.6533   9.4616   9.6162  10.1922  10.8335
    10.9790  11.3561  11.4818  11.5335  12.3170  12.3623  12.7040  12.9879
    13.0996  13.2317  13.5939  13.7966  13.9269  14.2130  14.3968  14.6646

     occupation numbers 
     1.0000   1.0000   1.0000   1.0000   1.0000   1.0000   1.0000   1.0000
     1.0000   0.0000   0.0000   0.0000   0.0000   0.0000   0.0000   0.0000
     0.0000   0.0000   0.0000   0.0000   0.0000   0.0000   0.0000   0.0000
     0.0000   0.0000   0.0000   0.0000   0.0000   0.0000   0.0000   0.0000
     0.0000   0.0000   0.0000   0.0000   0.0000   0.0000   0.0000   0.0000

          k =-0.0444 0.6917 0.0000 ( 10114 PWs)   bands (ev):

   -21.4234 -21.3977  -9.3124  -9.0993  -8.7425  -8.5778  -6.4153  -5.9481
    -1.9769  -0.2220   2.6542   3.8975   6.3806   6.6452   6.6660   7.7692
     8.3426   9.2035   9.3929   9.5990   9.6853  10.4692  10.6555  10.8274
    10.9595  11.0639  11.1647  11.2598  11.3083  11.8428  12.1805  12.3372
    12.4664  12.4913  12.7779  13.5922  13.6386  14.0049  14.0163  14.3628

     occupation numbers 
     1.0000   1.0000   1.0000   1.0000   1.0000   1.0000   1.0000   1.0000
     1.0000   0.0000   0.0000   0.0000   0.0000   0.0000   0.0000   0.0000
     0.0000   0.0000   0.0000   0.0000   0.0000   0.0000   0.0000   0.0000
     0.0000   0.0000   0.0000   0.0000   0.0000   0.0000   0.0000   0.0000
     0.0000   0.0000   0.0000   0.0000   0.0000   0.0000   0.0000   0.0000

          k = 0.0000 0.6149 0.0000 ( 10123 PWs)   bands (ev):

   -21.4239 -21.3982  -9.3142  -9.1008  -8.7400  -8.5755  -6.4161  -5.9486
    -1.9810  -0.2173   2.6545   3.8976   6.3819   6.6429   6.6642   7.7739
     8.3453   9.1932   9.3876   9.5937   9.6756  10.4636  10.6602  10.8276
    10.9555  11.0669  11.1709  11.2634  11.3122  11.8449  12.1814  12.3415
    12.4708  12.4892  12.7699  13.5906  13.6442  14.0088  14.0203  14.3636

     occupation numbers 
     1.0000   1.0000   1.0000   1.0000   1.0000   1.0000   1.0000   1.0000
     1.0000   0.0000   0.0000   0.0000   0.0000   0.0000   0.0000   0.0000
     0.0000   0.0000   0.0000   0.0000   0.0000   0.0000   0.0000   0.0000
     0.0000   0.0000   0.0000   0.0000   0.0000   0.0000   0.0000   0.0000
     0.0000   0.0000   0.0000   0.0000   0.0000   0.0000   0.0000   0.0000

          k = 0.4442 0.0000 0.0000 ( 10146 PWs)   bands (ev):

   -21.6544 -21.6199  -9.8105  -9.5050  -7.1109  -6.9798  -6.9450  -6.2423
    -2.9629   0.4645   2.6079   4.8123   5.1293   5.8563   6.1017   6.2670
     6.7913   7.1090   7.2294   7.9171   8.4117   9.2616   9.7266  10.4831
    10.5891  11.2699  11.4222  11.6690  11.8220  11.9737  12.5854  12.6906
    13.2231  13.9575  14.4697  14.7498  15.3714  15.5138  16.1272  16.3090

     occupation numbers 
     1.0000   1.0000   1.0000   1.0000   1.0000   1.0000   1.0000   1.0000
     1.0000   0.0000   0.0000   0.0000   0.0000   0.0000   0.0000   0.0000
     0.0000   0.0000   0.0000   0.0000   0.0000   0.0000   0.0000   0.0000
     0.0000   0.0000   0.0000   0.0000   0.0000   0.0000   0.0000   0.0000
     0.0000   0.0000   0.0000   0.0000   0.0000   0.0000   0.0000   0.0000

          k = 0.4887-0.0769 0.0000 ( 10112 PWs)   bands (ev):

   -21.5718 -21.5405  -9.9302  -9.6513  -7.2181  -7.1508  -6.8471  -6.1354
    -2.7805   0.0254   2.8138   5.0975   5.2644   5.6912   6.4235   6.8097
     7.0976   7.3947   7.9151   8.3547   8.9346   9.5833  10.0239  10.2342
    10.5080  10.8187  10.8721  11.2331  11.5970  11.6992  12.4549  12.4806
    13.3347  13.4118  14.1364  15.0630  15.0867  15.6668  15.6729  16.0095

     occupation numbers 
     1.0000   1.0000   1.0000   1.0000   1.0000   1.0000   1.0000   1.0000
     1.0000   0.0000   0.0000   0.0000   0.0000   0.0000   0.0000   0.0000
     0.0000   0.0000   0.0000   0.0000   0.0000   0.0000   0.0000   0.0000
     0.0000   0.0000   0.0000   0.0000   0.0000   0.0000   0.0000   0.0000
     0.0000   0.0000   0.0000   0.0000   0.0000   0.0000   0.0000   0.0000

          k =-0.0444 0.8455 0.0000 ( 10124 PWs)   bands (ev):

   -21.4953 -21.4670  -9.8564  -9.6021  -7.7229  -7.6190  -6.6163  -6.0379
    -2.4914  -0.1599   3.2407   4.1736   5.5666   6.0383   6.6573   7.1747
     8.0550   8.1757   8.6440   8.7913   9.5845   9.6057   9.8631  10.1212
    10.2511  10.5016  10.9862  11.2417  11.4136  11.6852  12.6903  12.8326
    13.5462  13.5775  13.8706  14.4708  14.5226  15.0589  15.0890  15.5008

     occupation numbers 
     1.0000   1.0000   1.0000   1.0000   1.0000   1.0000   1.0000   1.0000
     1.0000   0.0000   0.0000   0.0000   0.0000   0.0000   0.0000   0.0000
     0.0000   0.0000   0.0000   0.0000   0.0000   0.0000   0.0000   0.0000
     0.0000   0.0000   0.0000   0.0000   0.0000   0.0000   0.0000   0.0000
     0.0000   0.0000   0.0000   0.0000   0.0000   0.0000   0.0000   0.0000

          k = 0.0000 0.7686 0.0000 ( 10139 PWs)   bands (ev):

   -21.4421 -21.4157  -9.5870  -9.3580  -8.3381  -8.1950  -6.4653  -5.9713
    -2.1498  -0.2141   3.0931   3.6908   6.1059   6.5073   6.7148   7.5253
     8.3178   9.2372   9.3782   9.4482   9.6760   9.7646   9.9475   9.9763
    10.5136  10.9079  10.9565  11.1209  12.0894  12.2297  12.5919  12.6042
    12.9469  12.9543  13.0750  13.7522  13.8311  14.2060  14.5505  14.6558

     occupation numbers 
     1.0000   1.0000   1.0000   1.0000   1.0000   1.0000   1.0000   1.0000
     1.0000   0.0000   0.0000   0.0000   0.0000   0.0000   0.0000   0.0000
     0.0000   0.0000   0.0000   0.0000   0.0000   0.0000   0.0000   0.0000
     0.0000   0.0000   0.0000   0.0000   0.0000   0.0000   0.0000   0.0000
     0.0000   0.0000   0.0000   0.0000   0.0000   0.0000   0.0000   0.0000

          k = 0.5331 0.0000 0.0000 ( 10132 PWs)   bands (ev):

   -21.5426 -21.5127 -10.0917  -9.8202  -7.0481  -7.0119  -6.7606  -6.0969
    -2.7341  -0.4273   2.6523   5.0886   5.2515   6.5717   6.6237   6.9276
     7.6602   7.8981   8.1461   8.6498   8.8499   9.4173   9.4881   9.7945
    10.0173  10.3843  10.4148  11.1204  11.2965  11.6824  12.0144  12.1727
    13.1329  13.1779  13.9112  14.5773  15.2027  15.8965  16.1385  16.5253

     occupation numbers 
     1.0000   1.0000   1.0000   1.0000   1.0000   1.0000   1.0000   1.0000
     1.0000   0.0000   0.0000   0.0000   0.0000   0.0000   0.0000   0.0000
     0.0000   0.0000   0.0000   0.0000   0.0000   0.0000   0.0000   0.0000
     0.0000   0.0000   0.0000   0.0000   0.0000   0.0000   0.0000   0.0000
     0.0000   0.0000   0.0000   0.0000   0.0000   0.0000   0.0000   0.0000

          k = 0.0000 0.9223 0.0000 ( 10129 PWs)   bands (ev):

   -21.5151 -21.4863 -10.0662  -9.8028  -7.2571  -7.1930  -6.6645  -6.0618
    -2.6268  -0.4740   2.8275   5.1681   5.2459   6.0796   6.7314   6.9807
     8.3157   8.3296   8.6036   8.7824   8.8848   9.2877   9.3451   9.8198
     9.9246  10.4420  10.4724  11.0280  11.3423  11.5070  12.0215  12.3247
    12.9742  13.5794  14.1531  14.3173  15.1386  15.4099  15.8213  16.4473

     occupation numbers 
     1.0000   1.0000   1.0000   1.0000   1.0000   1.0000   1.0000   1.0000
     1.0000   0.0000   0.0000   0.0000   0.0000   0.0000   0.0000   0.0000
     0.0000   0.0000   0.0000   0.0000   0.0000   0.0000   0.0000   0.0000
     0.0000   0.0000   0.0000   0.0000   0.0000   0.0000   0.0000   0.0000
     0.0000   0.0000   0.0000   0.0000   0.0000   0.0000   0.0000   0.0000

     highest occupied, lowest unoccupied level (ev):    -1.9769   -0.4740

!    total energy              =    -162.71121930 Ry
     total all-electron energy =     -1272.690560 Ry
     estimated scf accuracy    <          1.1E-09 Ry

     The total energy is the sum of the following terms:
     one-electron contribution =    -682.23337913 Ry
     hartree contribution      =     346.45897368 Ry
     xc contribution           =     -20.37970631 Ry
     ewald contribution        =     281.96672436 Ry
     one-center paw contrib.   =     -88.52383190 Ry
      -> PAW hartree energy AE =      27.87727781 Ry
      -> PAW hartree energy PS =     -27.84350973 Ry
      -> PAW xc energy AE      =     -16.94003656 Ry
      -> PAW xc energy PS      =       7.32060124 Ry
      -> total E_H with PAW    =     346.49274176 Ry
      -> total E_XC with PAW   =     -29.99914164 Ry

     convergence has been achieved in  11 iterations

     Writing all to output data dir ./work/Al2O2.save/
 
     init_run     :      1.10s CPU      1.70s WALL (       1 calls)
     electrons    :     43.90s CPU     61.85s WALL (       1 calls)

     Called by init_run:
     wfcinit      :      0.90s CPU      1.46s WALL (       1 calls)
     wfcinit:atom :      0.00s CPU      0.00s WALL (      49 calls)
     wfcinit:wfcr :      0.86s CPU      1.42s WALL (      49 calls)
     potinit      :      0.08s CPU      0.09s WALL (       1 calls)
     hinit0       :      0.08s CPU      0.09s WALL (       1 calls)

     Called by electrons:
     c_bands      :     38.11s CPU     53.26s WALL (      11 calls)
     sum_band     :      4.79s CPU      7.46s WALL (      11 calls)
     v_of_rho     :      0.05s CPU      0.06s WALL (      12 calls)
     v_h          :      0.00s CPU      0.01s WALL (      12 calls)
     v_xc         :      0.05s CPU      0.06s WALL (      12 calls)
     newd         :      0.41s CPU      0.43s WALL (      12 calls)
     PAW_pot      :      0.59s CPU      0.69s WALL (      12 calls)
     mix_rho      :      0.03s CPU      0.03s WALL (      11 calls)

     Called by c_bands:
     init_us_2    :      0.26s CPU      0.31s WALL (    1127 calls)
     init_us_2:cp :      0.26s CPU      0.30s WALL (    1127 calls)
     cegterg      :     36.80s CPU     51.88s WALL (     539 calls)

     Called by sum_band:
     sum_band:wei :      0.00s CPU      0.00s WALL (      11 calls)
     sum_band:loo :      4.30s CPU      6.94s WALL (      11 calls)
     sum_band:buf :      0.10s CPU      0.14s WALL (     539 calls)
     sum_band:ini :      0.08s CPU      0.11s WALL (     539 calls)
     sum_band:cal :      0.26s CPU      0.40s WALL (     539 calls)
     sum_band:bec :      0.01s CPU      0.02s WALL (     539 calls)
     addusdens    :      0.47s CPU      0.48s WALL (      11 calls)
     addusd:skk   :      0.00s CPU      0.00s WALL (      22 calls)
     addusd:dgemm :      0.32s CPU      0.33s WALL (      22 calls)
     addusd:qvan2 :      0.14s CPU      0.14s WALL (      22 calls)

     Called by *egterg:
     cdiaghg      :      3.80s CPU      4.20s WALL (    2936 calls)
     cegterg:over :      2.33s CPU      2.73s WALL (    2397 calls)
     cegterg:upda :      1.36s CPU      1.46s WALL (    2397 calls)
     cegterg:last :      2.86s CPU      2.92s WALL (    1264 calls)
     h_psi        :     24.47s CPU     38.82s WALL (    2985 calls)
     s_psi        :      1.12s CPU      1.28s WALL (    2985 calls)
     g_psi        :      0.05s CPU      0.06s WALL (    2397 calls)

     Called by h_psi:
     h_psi:calbec :      1.54s CPU      2.27s WALL (    2985 calls)
     vloc_psi     :     21.01s CPU     34.21s WALL (    2985 calls)
     add_vuspsi   :      1.55s CPU      1.94s WALL (    2985 calls)

     General routines
     calbec       :      1.80s CPU      2.67s WALL (    3524 calls)
     fft          :      0.05s CPU      0.07s WALL (     132 calls)
     ffts         :      0.00s CPU      0.00s WALL (      11 calls)
     fftw         :     23.91s CPU     39.05s WALL (  140002 calls)
 
     Parallel routines

     PAW routines
     PAW_pot      :      0.59s CPU      0.69s WALL (      12 calls)
     PAW_symme    :      0.00s CPU      0.00s WALL (      23 calls)
 
     PWSCF        :     45.32s CPU   1m 4.48s WALL

 
   This run was terminated on:  22:16:42  19Jun2023            

=------------------------------------------------------------------------------=
   JOB DONE.
=------------------------------------------------------------------------------=
