
     Program BANDS v.7.1 starts on 22Jun2023 at 12:41:52 

     This program is part of the open-source Quantum ESPRESSO suite
     for quantum simulation of materials; please cite
         "P. Giannozzi et al., J. Phys.:Condens. Matter 21 395502 (2009);
         "P. Giannozzi et al., J. Phys.:Condens. Matter 29 465901 (2017);
         "P. Giannozzi et al., J. Chem. Phys. 152 154105 (2020);
          URL http://www.quantum-espresso.org", 
     in publications or presentations arising from this work. More details at
     http://www.quantum-espresso.org/quote

     Parallel version (MPI), running on    10 processors

     MPI processes distributed on     1 nodes
     R & G space division:  proc/nbgrp/npool/nimage =      10
     43164 MiB available memory on the printing compute node when the environment starts
 

     Reading xml data from directory:

     ./work/Al2O2.save/
     Message from routine volume:
     axis vectors are left-handed
     file Al.pbe-n-kjpaw_psl.1.0.0.UPF: wavefunction(s)  3S 3P renormalized
     file O.pbe-n-kjpaw_psl.1.0.0.UPF: wavefunction(s)  2S 2P renormalized

     IMPORTANT: XC functional enforced from input :
     Exchange-correlation= VDW-DF2-B86R
                           (   1   4  26   0   2   0   0)
     Any further DFT definition will be discarded
     Please, verify this is what you really want

 
     Parallelization info
     --------------------
     sticks:   dense  smooth     PW     G-vecs:    dense   smooth      PW
     Min          51      51     16                 8069     8069    1326
     Max          52      52     17                 8098     8098    1358
     Sum         511     511    163                80759    80759   13317
 
     Using Slab Decomposition
 

     Check: negative core charge=   -0.000003

     negative rho (up, down):  1.792E-03 0.000E+00


     %%%%%%%%%%%%%%%%%%%%%%%%%%%%%%%%%%%%%%%%%%%%%%%%%%%%%%%%%%%%%%%%%%%%%%%%
     %                                                                      %
     % You are using vdW-DF, which was implemented by the Thonhauser group. %
     % Please cite the following two papers that made this development      %
     % possible and the two reviews that describe the various versions:     %
     %                                                                      %
     %   T. Thonhauser et al., PRL 115, 136402 (2015).                      %
     %   T. Thonhauser et al., PRB 76, 125112 (2007).                       %
     %   K. Berland et al., Rep. Prog. Phys. 78, 066501 (2015).             %
     %   D.C. Langreth et al., J. Phys.: Condens. Matter 21, 084203 (2009). %
     %                                                                      %
     % If you are calculating stress with vdW-DF, please also cite:         %
     %                                                                      %
     %   R. Sabatini et al., J. Phys.: Condens. Matter 24, 424209 (2012).   %
     %                                                                      %
     %%%%%%%%%%%%%%%%%%%%%%%%%%%%%%%%%%%%%%%%%%%%%%%%%%%%%%%%%%%%%%%%%%%%%%%%

     %%%%%%%%%%%%%%%%%%%%%%%%%%%%%%%%%%%%%%%%%%%%%%%%%%%%%%%%%%%%%%%%%%%%%%%%
     %                                                                      %
     %  vdW-DF NEWS:                                                        %
     %                                                                      %
     %  * vdW-DF3 is now available. DOI: 10.1021/acs.jctc.0c00471           %
     %    use with input_dft = 'vdW-DF3-opt1' or 'vdW-DF3-opt2'             %
     %                                                                      %
     %  * Unscreened and range-separated vdW-DF hybrid functionals          %
     %    DOI: 10.1063/1.4986522 and 10.1088/1361-648X/ac2ad2               %
     %    use with input_dft = 'vdW-DF-cx0' (etc) and 'vdW-DF-ahcx'         %
     %                                                                      %
     %%%%%%%%%%%%%%%%%%%%%%%%%%%%%%%%%%%%%%%%%%%%%%%%%%%%%%%%%%%%%%%%%%%%%%%%


     Reading collected, re-writing distributed wavefunctions
     high-symmetry point:  0.0000 0.0000 0.0000   x coordinate   0.0000
     high-symmetry point:  0.5775 0.3327 0.0000   x coordinate   0.6665
     high-symmetry point:  0.5775 0.0000 0.0000   x coordinate   0.9992
     high-symmetry point:  0.0000 0.0000 0.0000   x coordinate   1.5767

     Plottable bands (eV) written to file Al2O2.bands.gnu
     Bands written to file Al2O2.bands

 **************************************************************************

                    xk=(   0.00000,   0.00000,   0.00000  )

     point group C_s (m)    
     there are  2 classes
     the character table:

       E     s    
A'     1.00  1.00
A''    1.00 -1.00

     the symmetry operations in each class and the name of the first element:

     E        1
                                                                 
     s        2
                                                                 

     Band symmetry, C_s (m)     point group:

     e(  1 -  1) =    -22.53297  eV     1   --> A'             
     e(  2 -  2) =    -22.46558  eV     1   --> A'             
     e(  3 -  3) =     -9.47604  eV     1   --> A'             
     e(  4 -  4) =     -7.41229  eV     1   --> A'             
     e(  5 -  5) =     -6.59594  eV     1   --> A''            
     e(  6 -  6) =     -6.58786  eV     1   --> A'             
     e(  7 -  7) =     -6.57463  eV     1   --> A''            
     e(  8 -  8) =     -6.56660  eV     1   --> A'             
     e(  9 -  9) =     -4.41630  eV     1   --> A'             
     e( 10 - 10) =     -0.29118  eV     1   --> A'             
     e( 11 - 11) =      1.65983  eV     1   --> A'             
     e( 12 - 12) =      2.43421  eV     1   --> A'             
     e( 13 - 13) =      2.69613  eV     1   --> A'             
     e( 14 - 14) =      3.21860  eV     1   --> A'             
     e( 15 - 15) =      3.47132  eV     1   --> A'             
     e( 16 - 16) =      4.42711  eV     1   --> A'             
     e( 17 - 17) =      5.07309  eV     1   --> A'             
     e( 18 - 18) =      6.44214  eV     1   --> A'             
     e( 19 - 19) =      6.52652  eV     1   --> A'             
     e( 20 - 20) =      8.12052  eV     1   --> A'             
     e( 21 - 21) =      8.49565  eV     1   --> A''            
     e( 22 - 22) =      8.51594  eV     1   --> A'             
     e( 23 - 23) =      9.00060  eV     1   --> A'             
     e( 24 - 24) =      9.85961  eV     1   --> A''            
     e( 25 - 25) =      9.88102  eV     1   --> A'             
     e( 26 - 26) =     10.99995  eV     1   --> A'             
     e( 27 - 27) =     11.00451  eV     1   --> A'             
     e( 28 - 28) =     12.09860  eV     1   --> A''            
     e( 29 - 29) =     12.12556  eV     1   --> A'             
     e( 30 - 30) =     12.88919  eV     1   --> A'             

 **************************************************************************

 **************************************************************************

                    xk=(   0.01925,   0.01109,   0.00000  )

     point group C_1 (1)    
     there are  1 classes
     the character table:

       E    
A      1.00

     the symmetry operations in each class and the name of the first element:

     E        1
                                                                 

     Band symmetry, C_1 (1)     point group:

     e(  1 -  1) =    -22.53003  eV     1   --> A              
     e(  2 -  2) =    -22.46276  eV     1   --> A              
     e(  3 -  3) =     -9.47119  eV     1   --> A              
     e(  4 -  4) =     -7.40891  eV     1   --> A              
     e(  5 -  5) =     -6.60994  eV     1   --> A              
     e(  6 -  6) =     -6.59567  eV     1   --> A              
     e(  7 -  7) =     -6.58758  eV     1   --> A              
     e(  8 -  8) =     -6.57424  eV     1   --> A              
     e(  9 -  9) =     -4.40591  eV     1   --> A              
     e( 10 - 10) =     -0.27242  eV     1   --> A              
     e( 11 - 11) =      1.66927  eV     1   --> A              
     e( 12 - 12) =      2.44192  eV     1   --> A              
     e( 13 - 13) =      2.70543  eV     1   --> A              
     e( 14 - 14) =      3.22922  eV     1   --> A              
     e( 15 - 15) =      3.47884  eV     1   --> A              
     e( 16 - 16) =      4.43593  eV     1   --> A              
     e( 17 - 17) =      5.07875  eV     1   --> A              
     e( 18 - 18) =      6.44869  eV     1   --> A              
     e( 19 - 19) =      6.52979  eV     1   --> A              
     e( 20 - 20) =      8.12898  eV     1   --> A              
     e( 21 - 21) =      8.41451  eV     1   --> A              
     e( 22 - 22) =      8.49819  eV     1   --> A              
     e( 23 - 23) =      9.02711  eV     1   --> A              
     e( 24 - 24) =      9.83836  eV     1   --> A              
     e( 25 - 25) =      9.87787  eV     1   --> A              
     e( 26 - 26) =     11.01179  eV     1   --> A              
     e( 27 - 27) =     11.04748  eV     1   --> A              
     e( 28 - 28) =     12.04950  eV     1   --> A              
     e( 29 - 29) =     12.10248  eV     1   --> A              
     e( 30 - 30) =     12.92380  eV     1   --> A              

 **************************************************************************

 **************************************************************************

                    xk=(   0.03850,   0.02218,   0.00000  )

     Band symmetry, C_1 (1)     point group:

     e(  1 -  1) =    -22.52125  eV     1   --> A              
     e(  2 -  2) =    -22.45431  eV     1   --> A              
     e(  3 -  3) =     -9.45671  eV     1   --> A              
     e(  4 -  4) =     -7.39885  eV     1   --> A              
     e(  5 -  5) =     -6.66503  eV     1   --> A              
     e(  6 -  6) =     -6.63981  eV     1   --> A              
     e(  7 -  7) =     -6.60438  eV     1   --> A              
     e(  8 -  8) =     -6.58280  eV     1   --> A              
     e(  9 -  9) =     -4.37589  eV     1   --> A              
     e( 10 - 10) =     -0.21697  eV     1   --> A              
     e( 11 - 11) =      1.69734  eV     1   --> A              
     e( 12 - 12) =      2.46495  eV     1   --> A              
     e( 13 - 13) =      2.73322  eV     1   --> A              
     e( 14 - 14) =      3.26098  eV     1   --> A              
     e( 15 - 15) =      3.50139  eV     1   --> A              
     e( 16 - 16) =      4.46230  eV     1   --> A              
     e( 17 - 17) =      5.09562  eV     1   --> A              
     e( 18 - 18) =      6.46778  eV     1   --> A              
     e( 19 - 19) =      6.53965  eV     1   --> A              
     e( 20 - 20) =      8.15427  eV     1   --> A              
     e( 21 - 21) =      8.17941  eV     1   --> A              
     e( 22 - 22) =      8.48520  eV     1   --> A              
     e( 23 - 23) =      9.07615  eV     1   --> A              
     e( 24 - 24) =      9.73942  eV     1   --> A              
     e( 25 - 25) =      9.90787  eV     1   --> A              
     e( 26 - 26) =     11.03728  eV     1   --> A              
     e( 27 - 27) =     11.15565  eV     1   --> A              
     e( 28 - 28) =     11.89584  eV     1   --> A              
     e( 29 - 29) =     12.08269  eV     1   --> A              
     e( 30 - 30) =     13.00872  eV     1   --> A              

 **************************************************************************

 **************************************************************************

                    xk=(   0.05775,   0.03327,   0.00000  )

     Band symmetry, C_1 (1)     point group:

     e(  1 -  1) =    -22.50672  eV     1   --> A              
     e(  2 -  2) =    -22.44032  eV     1   --> A              
     e(  3 -  3) =     -9.43291  eV     1   --> A              
     e(  4 -  4) =     -7.38248  eV     1   --> A              
     e(  5 -  5) =     -6.75301  eV     1   --> A              
     e(  6 -  6) =     -6.72476  eV     1   --> A              
     e(  7 -  7) =     -6.61793  eV     1   --> A              
     e(  8 -  8) =     -6.59596  eV     1   --> A              
     e(  9 -  9) =     -4.32930  eV     1   --> A              
     e( 10 - 10) =     -0.12726  eV     1   --> A              
     e( 11 - 11) =      1.74331  eV     1   --> A              
     e( 12 - 12) =      2.50310  eV     1   --> A              
     e( 13 - 13) =      2.77922  eV     1   --> A              
     e( 14 - 14) =      3.31355  eV     1   --> A              
     e( 15 - 15) =      3.53882  eV     1   --> A              
     e( 16 - 16) =      4.50598  eV     1   --> A              
     e( 17 - 17) =      5.12342  eV     1   --> A              
     e( 18 - 18) =      6.49728  eV     1   --> A              
     e( 19 - 19) =      6.55632  eV     1   --> A              
     e( 20 - 20) =      7.86850  eV     1   --> A              
     e( 21 - 21) =      8.19621  eV     1   --> A              
     e( 22 - 22) =      8.45750  eV     1   --> A              
     e( 23 - 23) =      9.12577  eV     1   --> A              
     e( 24 - 24) =      9.58464  eV     1   --> A              
     e( 25 - 25) =      9.96008  eV     1   --> A              
     e( 26 - 26) =     11.07884  eV     1   --> A              
     e( 27 - 27) =     11.23407  eV     1   --> A              
     e( 28 - 28) =     11.75518  eV     1   --> A              
     e( 29 - 29) =     12.05035  eV     1   --> A              
     e( 30 - 30) =     13.12363  eV     1   --> A              

 **************************************************************************

 **************************************************************************

                    xk=(   0.07700,   0.04436,   0.00000  )

     Band symmetry, C_1 (1)     point group:

     e(  1 -  1) =    -22.48658  eV     1   --> A              
     e(  2 -  2) =    -22.42093  eV     1   --> A              
     e(  3 -  3) =     -9.40037  eV     1   --> A              
     e(  4 -  4) =     -7.36071  eV     1   --> A              
     e(  5 -  5) =     -6.86727  eV     1   --> A              
     e(  6 -  6) =     -6.83729  eV     1   --> A              
     e(  7 -  7) =     -6.63700  eV     1   --> A              
     e(  8 -  8) =     -6.61445  eV     1   --> A              
     e(  9 -  9) =     -4.27005  eV     1   --> A              
     e( 10 - 10) =     -0.00684  eV     1   --> A              
     e( 11 - 11) =      1.80609  eV     1   --> A              
     e( 12 - 12) =      2.55598  eV     1   --> A              
     e( 13 - 13) =      2.84299  eV     1   --> A              
     e( 14 - 14) =      3.38630  eV     1   --> A              
     e( 15 - 15) =      3.59094  eV     1   --> A              
     e( 16 - 16) =      4.56641  eV     1   --> A              
     e( 17 - 17) =      5.16170  eV     1   --> A              
     e( 18 - 18) =      6.53080  eV     1   --> A              
     e( 19 - 19) =      6.58014  eV     1   --> A              
     e( 20 - 20) =      7.52456  eV     1   --> A              
     e( 21 - 21) =      8.25442  eV     1   --> A              
     e( 22 - 22) =      8.40445  eV     1   --> A              
     e( 23 - 23) =      9.17717  eV     1   --> A              
     e( 24 - 24) =      9.38991  eV     1   --> A              
     e( 25 - 25) =     10.03236  eV     1   --> A              
     e( 26 - 26) =     11.13586  eV     1   --> A              
     e( 27 - 27) =     11.16091  eV     1   --> A              
     e( 28 - 28) =     11.74303  eV     1   --> A              
     e( 29 - 29) =     12.01257  eV     1   --> A              
     e( 30 - 30) =     13.26298  eV     1   --> A              

 **************************************************************************

 **************************************************************************

                    xk=(   0.09625,   0.05545,   0.00000  )

     Band symmetry, C_1 (1)     point group:

     e(  1 -  1) =    -22.46103  eV     1   --> A              
     e(  2 -  2) =    -22.39635  eV     1   --> A              
     e(  3 -  3) =     -9.35995  eV     1   --> A              
     e(  4 -  4) =     -7.33613  eV     1   --> A              
     e(  5 -  5) =     -7.00109  eV     1   --> A              
     e(  6 -  6) =     -6.97029  eV     1   --> A              
     e(  7 -  7) =     -6.66185  eV     1   --> A              
     e(  8 -  8) =     -6.63848  eV     1   --> A              
     e(  9 -  9) =     -4.20188  eV     1   --> A              
     e( 10 - 10) =      0.14012  eV     1   --> A              
     e( 11 - 11) =      1.88440  eV     1   --> A              
     e( 12 - 12) =      2.62303  eV     1   --> A              
     e( 13 - 13) =      2.92401  eV     1   --> A              
     e( 14 - 14) =      3.47818  eV     1   --> A              
     e( 15 - 15) =      3.65744  eV     1   --> A              
     e( 16 - 16) =      4.64252  eV     1   --> A              
     e( 17 - 17) =      5.20983  eV     1   --> A              
     e( 18 - 18) =      6.54555  eV     1   --> A              
     e( 19 - 19) =      6.61160  eV     1   --> A              
     e( 20 - 20) =      7.19181  eV     1   --> A              
     e( 21 - 21) =      8.31411  eV     1   --> A              
     e( 22 - 22) =      8.32815  eV     1   --> A              
     e( 23 - 23) =      9.17024  eV     1   --> A              
     e( 24 - 24) =      9.23505  eV     1   --> A              
     e( 25 - 25) =     10.12332  eV     1   --> A              
     e( 26 - 26) =     10.98930  eV     1   --> A              
     e( 27 - 27) =     11.20828  eV     1   --> A              
     e( 28 - 28) =     11.76195  eV     1   --> A              
     e( 29 - 29) =     12.02094  eV     1   --> A              
     e( 30 - 30) =     13.42084  eV     1   --> A              

 **************************************************************************

 **************************************************************************

                    xk=(   0.11550,   0.06654,   0.00000  )

     Band symmetry, C_1 (1)     point group:

     e(  1 -  1) =    -22.43035  eV     1   --> A              
     e(  2 -  2) =    -22.36682  eV     1   --> A              
     e(  3 -  3) =     -9.31300  eV     1   --> A              
     e(  4 -  4) =     -7.32059  eV     1   --> A              
     e(  5 -  5) =     -7.14768  eV     1   --> A              
     e(  6 -  6) =     -7.10735  eV     1   --> A              
     e(  7 -  7) =     -6.69271  eV     1   --> A              
     e(  8 -  8) =     -6.66825  eV     1   --> A              
     e(  9 -  9) =     -4.12792  eV     1   --> A              
     e( 10 - 10) =      0.30925  eV     1   --> A              
     e( 11 - 11) =      1.97689  eV     1   --> A              
     e( 12 - 12) =      2.70348  eV     1   --> A              
     e( 13 - 13) =      3.02172  eV     1   --> A              
     e( 14 - 14) =      3.58761  eV     1   --> A              
     e( 15 - 15) =      3.73797  eV     1   --> A              
     e( 16 - 16) =      4.73200  eV     1   --> A              
     e( 17 - 17) =      5.26709  eV     1   --> A              
     e( 18 - 18) =      6.45552  eV     1   --> A              
     e( 19 - 19) =      6.65132  eV     1   --> A              
     e( 20 - 20) =      6.97011  eV     1   --> A              
     e( 21 - 21) =      8.17792  eV     1   --> A              
     e( 22 - 22) =      8.41536  eV     1   --> A              
     e( 23 - 23) =      8.94011  eV     1   --> A              
     e( 24 - 24) =      9.30257  eV     1   --> A              
     e( 25 - 25) =     10.23102  eV     1   --> A              
     e( 26 - 26) =     10.81326  eV     1   --> A              
     e( 27 - 27) =     11.29533  eV     1   --> A              
     e( 28 - 28) =     11.70150  eV     1   --> A              
     e( 29 - 29) =     12.11015  eV     1   --> A              
     e( 30 - 30) =     13.58593  eV     1   --> A              

 **************************************************************************

 **************************************************************************

                    xk=(   0.13475,   0.07763,   0.00000  )

     Band symmetry, C_1 (1)     point group:

     e(  1 -  1) =    -22.39486  eV     1   --> A              
     e(  2 -  2) =    -22.33267  eV     1   --> A              
     e(  3 -  3) =     -9.26149  eV     1   --> A              
     e(  4 -  4) =     -7.37698  eV     1   --> A              
     e(  5 -  5) =     -7.30026  eV     1   --> A              
     e(  6 -  6) =     -7.18097  eV     1   --> A              
     e(  7 -  7) =     -6.72990  eV     1   --> A              
     e(  8 -  8) =     -6.70399  eV     1   --> A              
     e(  9 -  9) =     -4.05047  eV     1   --> A              
     e( 10 - 10) =      0.49645  eV     1   --> A              
     e( 11 - 11) =      2.08224  eV     1   --> A              
     e( 12 - 12) =      2.79627  eV     1   --> A              
     e( 13 - 13) =      3.13557  eV     1   --> A              
     e( 14 - 14) =      3.71211  eV     1   --> A              
     e( 15 - 15) =      3.83213  eV     1   --> A              
     e( 16 - 16) =      4.82941  eV     1   --> A              
     e( 17 - 17) =      5.33272  eV     1   --> A              
     e( 18 - 18) =      6.19153  eV     1   --> A              
     e( 19 - 19) =      6.69998  eV     1   --> A              
     e( 20 - 20) =      6.93934  eV     1   --> A              
     e( 21 - 21) =      7.99721  eV     1   --> A              
     e( 22 - 22) =      8.50238  eV     1   --> A              
     e( 23 - 23) =      8.72358  eV     1   --> A              
     e( 24 - 24) =      9.38015  eV     1   --> A              
     e( 25 - 25) =     10.35280  eV     1   --> A              
     e( 26 - 26) =     10.65339  eV     1   --> A              
     e( 27 - 27) =     11.39675  eV     1   --> A              
     e( 28 - 28) =     11.61777  eV     1   --> A              
     e( 29 - 29) =     12.22446  eV     1   --> A              
     e( 30 - 30) =     13.74775  eV     1   --> A              

 **************************************************************************

 **************************************************************************

                    xk=(   0.15400,   0.08872,   0.00000  )

     Band symmetry, C_1 (1)     point group:

     e(  1 -  1) =    -22.35493  eV     1   --> A              
     e(  2 -  2) =    -22.29426  eV     1   --> A              
     e(  3 -  3) =     -9.20840  eV     1   --> A              
     e(  4 -  4) =     -7.53061  eV     1   --> A              
     e(  5 -  5) =     -7.45176  eV     1   --> A              
     e(  6 -  6) =     -7.16175  eV     1   --> A              
     e(  7 -  7) =     -6.77369  eV     1   --> A              
     e(  8 -  8) =     -6.74589  eV     1   --> A              
     e(  9 -  9) =     -3.97112  eV     1   --> A              
     e( 10 - 10) =      0.69798  eV     1   --> A              
     e( 11 - 11) =      2.19918  eV     1   --> A              
     e( 12 - 12) =      2.90008  eV     1   --> A              
     e( 13 - 13) =      3.26501  eV     1   --> A              
     e( 14 - 14) =      3.84752  eV     1   --> A              
     e( 15 - 15) =      3.93950  eV     1   --> A              
     e( 16 - 16) =      4.91930  eV     1   --> A              
     e( 17 - 17) =      5.40607  eV     1   --> A              
     e( 18 - 18) =      5.87878  eV     1   --> A              
     e( 19 - 19) =      6.75805  eV     1   --> A              
     e( 20 - 20) =      6.98644  eV     1   --> A              
     e( 21 - 21) =      7.78976  eV     1   --> A              
     e( 22 - 22) =      8.43274  eV     1   --> A              
     e( 23 - 23) =      8.68588  eV     1   --> A              
     e( 24 - 24) =      9.46393  eV     1   --> A              
     e( 25 - 25) =     10.48501  eV     1   --> A              
     e( 26 - 26) =     10.50102  eV     1   --> A              
     e( 27 - 27) =     11.51193  eV     1   --> A              
     e( 28 - 28) =     11.56163  eV     1   --> A              
     e( 29 - 29) =     12.34011  eV     1   --> A              
     e( 30 - 30) =     13.90282  eV     1   --> A              

 **************************************************************************

 **************************************************************************

                    xk=(   0.17325,   0.09980,   0.00000  )

     Band symmetry, C_1 (1)     point group:

     e(  1 -  1) =    -22.31099  eV     1   --> A              
     e(  2 -  2) =    -22.25200  eV     1   --> A              
     e(  3 -  3) =     -9.15817  eV     1   --> A              
     e(  4 -  4) =     -7.71146  eV     1   --> A              
     e(  5 -  5) =     -7.59428  eV     1   --> A              
     e(  6 -  6) =     -7.11619  eV     1   --> A              
     e(  7 -  7) =     -6.82439  eV     1   --> A              
     e(  8 -  8) =     -6.79406  eV     1   --> A              
     e(  9 -  9) =     -3.89092  eV     1   --> A              
     e( 10 - 10) =      0.91062  eV     1   --> A              
     e( 11 - 11) =      2.32643  eV     1   --> A              
     e( 12 - 12) =      3.01322  eV     1   --> A              
     e( 13 - 13) =      3.40932  eV     1   --> A              
     e( 14 - 14) =      3.98517  eV     1   --> A              
     e( 15 - 15) =      4.05971  eV     1   --> A              
     e( 16 - 16) =      4.95226  eV     1   --> A              
     e( 17 - 17) =      5.48675  eV     1   --> A              
     e( 18 - 18) =      5.63601  eV     1   --> A              
     e( 19 - 19) =      6.82535  eV     1   --> A              
     e( 20 - 20) =      7.01503  eV     1   --> A              
     e( 21 - 21) =      7.60584  eV     1   --> A              
     e( 22 - 22) =      8.23302  eV     1   --> A              
     e( 23 - 23) =      8.80822  eV     1   --> A              
     e( 24 - 24) =      9.54139  eV     1   --> A              
     e( 25 - 25) =     10.35082  eV     1   --> A              
     e( 26 - 26) =     10.62280  eV     1   --> A              
     e( 27 - 27) =     11.56064  eV     1   --> A              
     e( 28 - 28) =     11.64024  eV     1   --> A              
     e( 29 - 29) =     12.45352  eV     1   --> A              
     e( 30 - 30) =     14.05409  eV     1   --> A              

 **************************************************************************

 **************************************************************************

                    xk=(   0.19250,   0.11089,   0.00000  )

     Band symmetry, C_1 (1)     point group:

     e(  1 -  1) =    -22.26356  eV     1   --> A              
     e(  2 -  2) =    -22.20639  eV     1   --> A              
     e(  3 -  3) =     -9.11719  eV     1   --> A              
     e(  4 -  4) =     -7.89913  eV     1   --> A              
     e(  5 -  5) =     -7.71862  eV     1   --> A              
     e(  6 -  6) =     -7.06191  eV     1   --> A              
     e(  7 -  7) =     -6.88225  eV     1   --> A              
     e(  8 -  8) =     -6.84834  eV     1   --> A              
     e(  9 -  9) =     -3.81053  eV     1   --> A              
     e( 10 - 10) =      1.13156  eV     1   --> A              
     e( 11 - 11) =      2.46251  eV     1   --> A              
     e( 12 - 12) =      3.13368  eV     1   --> A              
     e( 13 - 13) =      3.56694  eV     1   --> A              
     e( 14 - 14) =      4.10019  eV     1   --> A              
     e( 15 - 15) =      4.19255  eV     1   --> A              
     e( 16 - 16) =      4.85355  eV     1   --> A              
     e( 17 - 17) =      5.57466  eV     1   --> A              
     e( 18 - 18) =      5.57921  eV     1   --> A              
     e( 19 - 19) =      6.89998  eV     1   --> A              
     e( 20 - 20) =      6.92338  eV     1   --> A              
     e( 21 - 21) =      7.54666  eV     1   --> A              
     e( 22 - 22) =      8.04398  eV     1   --> A              
     e( 23 - 23) =      8.95793  eV     1   --> A              
     e( 24 - 24) =      9.57846  eV     1   --> A              
     e( 25 - 25) =     10.23098  eV     1   --> A              
     e( 26 - 26) =     10.75987  eV     1   --> A              
     e( 27 - 27) =     11.62153  eV     1   --> A              
     e( 28 - 28) =     11.78085  eV     1   --> A              
     e( 29 - 29) =     12.56447  eV     1   --> A              
     e( 30 - 30) =     13.77964  eV     1   --> A              

 **************************************************************************

 **************************************************************************

                    xk=(   0.21175,   0.12198,   0.00000  )

     Band symmetry, C_1 (1)     point group:

     e(  1 -  1) =    -22.21315  eV     1   --> A              
     e(  2 -  2) =    -22.15794  eV     1   --> A              
     e(  3 -  3) =     -9.09378  eV     1   --> A              
     e(  4 -  4) =     -8.08711  eV     1   --> A              
     e(  5 -  5) =     -7.81407  eV     1   --> A              
     e(  6 -  6) =     -7.00512  eV     1   --> A              
     e(  7 -  7) =     -6.94748  eV     1   --> A              
     e(  8 -  8) =     -6.90642  eV     1   --> A              
     e(  9 -  9) =     -3.73028  eV     1   --> A              
     e( 10 - 10) =      1.35837  eV     1   --> A              
     e( 11 - 11) =      2.60529  eV     1   --> A              
     e( 12 - 12) =      3.25915  eV     1   --> A              
     e( 13 - 13) =      3.73101  eV     1   --> A              
     e( 14 - 14) =      4.11566  eV     1   --> A              
     e( 15 - 15) =      4.33806  eV     1   --> A              
     e( 16 - 16) =      4.74151  eV     1   --> A              
     e( 17 - 17) =      5.67064  eV     1   --> A              
     e( 18 - 18) =      5.67729  eV     1   --> A              
     e( 19 - 19) =      6.70472  eV     1   --> A              
     e( 20 - 20) =      6.97623  eV     1   --> A              
     e( 21 - 21) =      7.62767  eV     1   --> A              
     e( 22 - 22) =      7.88652  eV     1   --> A              
     e( 23 - 23) =      9.12479  eV     1   --> A              
     e( 24 - 24) =      9.51770  eV     1   --> A              
     e( 25 - 25) =     10.20479  eV     1   --> A              
     e( 26 - 26) =     10.88852  eV     1   --> A              
     e( 27 - 27) =     11.73633  eV     1   --> A              
     e( 28 - 28) =     11.93292  eV     1   --> A              
     e( 29 - 29) =     12.67259  eV     1   --> A              
     e( 30 - 30) =     13.39032  eV     1   --> A              

 **************************************************************************

 **************************************************************************

                    xk=(   0.23100,   0.13307,   0.00000  )

     Band symmetry, C_1 (1)     point group:

     e(  1 -  1) =    -22.16038  eV     1   --> A              
     e(  2 -  2) =    -22.10722  eV     1   --> A              
     e(  3 -  3) =     -9.09638  eV     1   --> A              
     e(  4 -  4) =     -8.27154  eV     1   --> A              
     e(  5 -  5) =     -7.87037  eV     1   --> A              
     e(  6 -  6) =     -7.02033  eV     1   --> A              
     e(  7 -  7) =     -6.99399  eV     1   --> A              
     e(  8 -  8) =     -6.92201  eV     1   --> A              
     e(  9 -  9) =     -3.65038  eV     1   --> A              
     e( 10 - 10) =      1.58876  eV     1   --> A              
     e( 11 - 11) =      2.75076  eV     1   --> A              
     e( 12 - 12) =      3.38728  eV     1   --> A              
     e( 13 - 13) =      3.81506  eV     1   --> A              
     e( 14 - 14) =      4.03597  eV     1   --> A              
     e( 15 - 15) =      4.49663  eV     1   --> A              
     e( 16 - 16) =      4.79177  eV     1   --> A              
     e( 17 - 17) =      5.77541  eV     1   --> A              
     e( 18 - 18) =      5.83582  eV     1   --> A              
     e( 19 - 19) =      6.44526  eV     1   --> A              
     e( 20 - 20) =      7.04077  eV     1   --> A              
     e( 21 - 21) =      7.77517  eV     1   --> A              
     e( 22 - 22) =      7.77962  eV     1   --> A              
     e( 23 - 23) =      9.30690  eV     1   --> A              
     e( 24 - 24) =      9.35688  eV     1   --> A              
     e( 25 - 25) =     10.28389  eV     1   --> A              
     e( 26 - 26) =     10.99996  eV     1   --> A              
     e( 27 - 27) =     11.89267  eV     1   --> A              
     e( 28 - 28) =     12.09418  eV     1   --> A              
     e( 29 - 29) =     12.77645  eV     1   --> A              
     e( 30 - 30) =     13.00067  eV     1   --> A              

 **************************************************************************

 **************************************************************************

                    xk=(   0.25025,   0.14416,   0.00000  )

     Band symmetry, C_1 (1)     point group:

     e(  1 -  1) =    -22.10587  eV     1   --> A              
     e(  2 -  2) =    -22.05485  eV     1   --> A              
     e(  3 -  3) =     -9.12925  eV     1   --> A              
     e(  4 -  4) =     -8.44947  eV     1   --> A              
     e(  5 -  5) =     -7.88170  eV     1   --> A              
     e(  6 -  6) =     -7.10081  eV     1   --> A              
     e(  7 -  7) =     -7.06271  eV     1   --> A              
     e(  8 -  8) =     -6.86209  eV     1   --> A              
     e(  9 -  9) =     -3.57079  eV     1   --> A              
     e( 10 - 10) =      1.82037  eV     1   --> A              
     e( 11 - 11) =      2.88779  eV     1   --> A              
     e( 12 - 12) =      3.51608  eV     1   --> A              
     e( 13 - 13) =      3.59908  eV     1   --> A              
     e( 14 - 14) =      4.18051  eV     1   --> A              
     e( 15 - 15) =      4.66901  eV     1   --> A              
     e( 16 - 16) =      4.94601  eV     1   --> A              
     e( 17 - 17) =      5.88969  eV     1   --> A              
     e( 18 - 18) =      5.98243  eV     1   --> A              
     e( 19 - 19) =      6.22617  eV     1   --> A              
     e( 20 - 20) =      7.07266  eV     1   --> A              
     e( 21 - 21) =      7.74794  eV     1   --> A              
     e( 22 - 22) =      7.95547  eV     1   --> A              
     e( 23 - 23) =      9.14960  eV     1   --> A              
     e( 24 - 24) =      9.50321  eV     1   --> A              
     e( 25 - 25) =     10.42299  eV     1   --> A              
     e( 26 - 26) =     11.08546  eV     1   --> A              
     e( 27 - 27) =     12.07873  eV     1   --> A              
     e( 28 - 28) =     12.24584  eV     1   --> A              
     e( 29 - 29) =     12.63836  eV     1   --> A              
     e( 30 - 30) =     12.87334  eV     1   --> A              

 **************************************************************************

 **************************************************************************

                    xk=(   0.26950,   0.15525,   0.00000  )

     Band symmetry, C_1 (1)     point group:

     e(  1 -  1) =    -22.05029  eV     1   --> A              
     e(  2 -  2) =    -22.00147  eV     1   --> A              
     e(  3 -  3) =     -9.18932  eV     1   --> A              
     e(  4 -  4) =     -8.61840  eV     1   --> A              
     e(  5 -  5) =     -7.85010  eV     1   --> A              
     e(  6 -  6) =     -7.18897  eV     1   --> A              
     e(  7 -  7) =     -7.14457  eV     1   --> A              
     e(  8 -  8) =     -6.79430  eV     1   --> A              
     e(  9 -  9) =     -3.49136  eV     1   --> A              
     e( 10 - 10) =      2.05055  eV     1   --> A              
     e( 11 - 11) =      2.96189  eV     1   --> A              
     e( 12 - 12) =      3.36636  eV     1   --> A              
     e( 13 - 13) =      3.64466  eV     1   --> A              
     e( 14 - 14) =      4.39228  eV     1   --> A              
     e( 15 - 15) =      4.85621  eV     1   --> A              
     e( 16 - 16) =      5.13274  eV     1   --> A              
     e( 17 - 17) =      5.86858  eV     1   --> A              
     e( 18 - 18) =      6.01317  eV     1   --> A              
     e( 19 - 19) =      6.30948  eV     1   --> A              
     e( 20 - 20) =      7.06347  eV     1   --> A              
     e( 21 - 21) =      7.80347  eV     1   --> A              
     e( 22 - 22) =      8.15676  eV     1   --> A              
     e( 23 - 23) =      8.93147  eV     1   --> A              
     e( 24 - 24) =      9.71230  eV     1   --> A              
     e( 25 - 25) =     10.59323  eV     1   --> A              
     e( 26 - 26) =     11.13786  eV     1   --> A              
     e( 27 - 27) =     12.15001  eV     1   --> A              
     e( 28 - 28) =     12.28395  eV     1   --> A              
     e( 29 - 29) =     12.54886  eV     1   --> A              
     e( 30 - 30) =     12.95872  eV     1   --> A              

 **************************************************************************

 **************************************************************************

                    xk=(   0.28876,   0.16634,   0.00000  )

     Band symmetry, C_1 (1)     point group:

     e(  1 -  1) =    -21.99434  eV     1   --> A              
     e(  2 -  2) =    -21.94776  eV     1   --> A              
     e(  3 -  3) =     -9.26780  eV     1   --> A              
     e(  4 -  4) =     -8.77624  eV     1   --> A              
     e(  5 -  5) =     -7.78375  eV     1   --> A              
     e(  6 -  6) =     -7.28467  eV     1   --> A              
     e(  7 -  7) =     -7.23420  eV     1   --> A              
     e(  8 -  8) =     -6.72492  eV     1   --> A              
     e(  9 -  9) =     -3.41177  eV     1   --> A              
     e( 10 - 10) =      2.27602  eV     1   --> A              
     e( 11 - 11) =      2.80816  eV     1   --> A              
     e( 12 - 12) =      3.34716  eV     1   --> A              
     e( 13 - 13) =      3.77387  eV     1   --> A              
     e( 14 - 14) =      4.62225  eV     1   --> A              
     e( 15 - 15) =      5.05909  eV     1   --> A              
     e( 16 - 16) =      5.29885  eV     1   --> A              
     e( 17 - 17) =      5.70014  eV     1   --> A              
     e( 18 - 18) =      6.14247  eV     1   --> A              
     e( 19 - 19) =      6.53215  eV     1   --> A              
     e( 20 - 20) =      7.03558  eV     1   --> A              
     e( 21 - 21) =      7.92874  eV     1   --> A              
     e( 22 - 22) =      8.36800  eV     1   --> A              
     e( 23 - 23) =      8.72530  eV     1   --> A              
     e( 24 - 24) =      9.93126  eV     1   --> A              
     e( 25 - 25) =     10.78222  eV     1   --> A              
     e( 26 - 26) =     11.15230  eV     1   --> A              
     e( 27 - 27) =     11.81352  eV     1   --> A              
     e( 28 - 28) =     12.49782  eV     1   --> A              
     e( 29 - 29) =     12.73389  eV     1   --> A              
     e( 30 - 30) =     13.02568  eV     1   --> A              

 **************************************************************************

 **************************************************************************

                    xk=(   0.30801,   0.17743,   0.00000  )

     Band symmetry, C_1 (1)     point group:

     e(  1 -  1) =    -21.93874  eV     1   --> A              
     e(  2 -  2) =    -21.89439  eV     1   --> A              
     e(  3 -  3) =     -9.35473  eV     1   --> A              
     e(  4 -  4) =     -8.92102  eV     1   --> A              
     e(  5 -  5) =     -7.69238  eV     1   --> A              
     e(  6 -  6) =     -7.38764  eV     1   --> A              
     e(  7 -  7) =     -7.33077  eV     1   --> A              
     e(  8 -  8) =     -6.65548  eV     1   --> A              
     e(  9 -  9) =     -3.33151  eV     1   --> A              
     e( 10 - 10) =      2.49274  eV     1   --> A              
     e( 11 - 11) =      2.51957  eV     1   --> A              
     e( 12 - 12) =      3.45232  eV     1   --> A              
     e( 13 - 13) =      3.90694  eV     1   --> A              
     e( 14 - 14) =      4.85578  eV     1   --> A              
     e( 15 - 15) =      5.27799  eV     1   --> A              
     e( 16 - 16) =      5.31065  eV     1   --> A              
     e( 17 - 17) =      5.73795  eV     1   --> A              
     e( 18 - 18) =      6.26841  eV     1   --> A              
     e( 19 - 19) =      6.78061  eV     1   --> A              
     e( 20 - 20) =      7.02225  eV     1   --> A              
     e( 21 - 21) =      8.09962  eV     1   --> A              
     e( 22 - 22) =      8.45403  eV     1   --> A              
     e( 23 - 23) =      8.67246  eV     1   --> A              
     e( 24 - 24) =     10.15202  eV     1   --> A              
     e( 25 - 25) =     10.98300  eV     1   --> A              
     e( 26 - 26) =     11.12360  eV     1   --> A              
     e( 27 - 27) =     11.48740  eV     1   --> A              
     e( 28 - 28) =     12.70640  eV     1   --> A              
     e( 29 - 29) =     12.95792  eV     1   --> A              
     e( 30 - 30) =     13.06608  eV     1   --> A              

 **************************************************************************

 **************************************************************************

                    xk=(   0.32726,   0.18852,   0.00000  )

     Band symmetry, C_1 (1)     point group:

     e(  1 -  1) =    -21.88421  eV     1   --> A              
     e(  2 -  2) =    -21.84206  eV     1   --> A              
     e(  3 -  3) =     -9.44179  eV     1   --> A              
     e(  4 -  4) =     -9.05119  eV     1   --> A              
     e(  5 -  5) =     -7.58507  eV     1   --> A              
     e(  6 -  6) =     -7.49691  eV     1   --> A              
     e(  7 -  7) =     -7.43380  eV     1   --> A              
     e(  8 -  8) =     -6.58707  eV     1   --> A              
     e(  9 -  9) =     -3.24987  eV     1   --> A              
     e( 10 - 10) =      2.21170  eV     1   --> A              
     e( 11 - 11) =      2.69596  eV     1   --> A              
     e( 12 - 12) =      3.55600  eV     1   --> A              
     e( 13 - 13) =      4.04928  eV     1   --> A              
     e( 14 - 14) =      5.01979  eV     1   --> A              
     e( 15 - 15) =      5.29672  eV     1   --> A              
     e( 16 - 16) =      5.51193  eV     1   --> A              
     e( 17 - 17) =      5.94754  eV     1   --> A              
     e( 18 - 18) =      6.37436  eV     1   --> A              
     e( 19 - 19) =      7.04496  eV     1   --> A              
     e( 20 - 20) =      7.05425  eV     1   --> A              
     e( 21 - 21) =      8.29235  eV     1   --> A              
     e( 22 - 22) =      8.30049  eV     1   --> A              
     e( 23 - 23) =      8.89943  eV     1   --> A              
     e( 24 - 24) =     10.34438  eV     1   --> A              
     e( 25 - 25) =     11.04218  eV     1   --> A              
     e( 26 - 26) =     11.18911  eV     1   --> A              
     e( 27 - 27) =     11.23687  eV     1   --> A              
     e( 28 - 28) =     12.87337  eV     1   --> A              
     e( 29 - 29) =     13.08927  eV     1   --> A              
     e( 30 - 30) =     13.19556  eV     1   --> A              

 **************************************************************************

 **************************************************************************

                    xk=(   0.34651,   0.19961,   0.00000  )

     Band symmetry, C_1 (1)     point group:

     e(  1 -  1) =    -21.83144  eV     1   --> A              
     e(  2 -  2) =    -21.79144  eV     1   --> A              
     e(  3 -  3) =     -9.52285  eV     1   --> A              
     e(  4 -  4) =     -9.16530  eV     1   --> A              
     e(  5 -  5) =     -7.61535  eV     1   --> A              
     e(  6 -  6) =     -7.54279  eV     1   --> A              
     e(  7 -  7) =     -7.46522  eV     1   --> A              
     e(  8 -  8) =     -6.52069  eV     1   --> A              
     e(  9 -  9) =     -3.16591  eV     1   --> A              
     e( 10 - 10) =      1.90618  eV     1   --> A              
     e( 11 - 11) =      2.88104  eV     1   --> A              
     e( 12 - 12) =      3.61791  eV     1   --> A              
     e( 13 - 13) =      4.20730  eV     1   --> A              
     e( 14 - 14) =      5.01801  eV     1   --> A              
     e( 15 - 15) =      5.50230  eV     1   --> A              
     e( 16 - 16) =      5.75715  eV     1   --> A              
     e( 17 - 17) =      6.20081  eV     1   --> A              
     e( 18 - 18) =      6.44672  eV     1   --> A              
     e( 19 - 19) =      7.15319  eV     1   --> A              
     e( 20 - 20) =      7.32200  eV     1   --> A              
     e( 21 - 21) =      8.12714  eV     1   --> A              
     e( 22 - 22) =      8.52122  eV     1   --> A              
     e( 23 - 23) =      9.16556  eV     1   --> A              
     e( 24 - 24) =     10.39326  eV     1   --> A              
     e( 25 - 25) =     10.99994  eV     1   --> A              
     e( 26 - 26) =     11.09591  eV     1   --> A              
     e( 27 - 27) =     11.39101  eV     1   --> A              
     e( 28 - 28) =     12.89319  eV     1   --> A              
     e( 29 - 29) =     13.17322  eV     1   --> A              
     e( 30 - 30) =     13.39593  eV     1   --> A              

 **************************************************************************

 **************************************************************************

                    xk=(   0.36576,   0.21070,   0.00000  )

     Band symmetry, C_1 (1)     point group:

     e(  1 -  1) =    -21.78113  eV     1   --> A              
     e(  2 -  2) =    -21.74318  eV     1   --> A              
     e(  3 -  3) =     -9.59356  eV     1   --> A              
     e(  4 -  4) =     -9.26210  eV     1   --> A              
     e(  5 -  5) =     -7.73756  eV     1   --> A              
     e(  6 -  6) =     -7.65715  eV     1   --> A              
     e(  7 -  7) =     -7.34296  eV     1   --> A              
     e(  8 -  8) =     -6.45728  eV     1   --> A              
     e(  9 -  9) =     -3.07853  eV     1   --> A              
     e( 10 - 10) =      1.60884  eV     1   --> A              
     e( 11 - 11) =      3.04482  eV     1   --> A              
     e( 12 - 12) =      3.61597  eV     1   --> A              
     e( 13 - 13) =      4.38636  eV     1   --> A              
     e( 14 - 14) =      5.03104  eV     1   --> A              
     e( 15 - 15) =      5.78800  eV     1   --> A              
     e( 16 - 16) =      6.00154  eV     1   --> A              
     e( 17 - 17) =      6.47217  eV     1   --> A              
     e( 18 - 18) =      6.49906  eV     1   --> A              
     e( 19 - 19) =      7.31697  eV     1   --> A              
     e( 20 - 20) =      7.60517  eV     1   --> A              
     e( 21 - 21) =      7.98782  eV     1   --> A              
     e( 22 - 22) =      8.75115  eV     1   --> A              
     e( 23 - 23) =      9.44910  eV     1   --> A              
     e( 24 - 24) =     10.23283  eV     1   --> A              
     e( 25 - 25) =     10.95784  eV     1   --> A              
     e( 26 - 26) =     11.18178  eV     1   --> A              
     e( 27 - 27) =     11.56997  eV     1   --> A              
     e( 28 - 28) =     12.79950  eV     1   --> A              
     e( 29 - 29) =     13.21491  eV     1   --> A              
     e( 30 - 30) =     13.25750  eV     1   --> A              

 **************************************************************************

 **************************************************************************

                    xk=(   0.38501,   0.22179,   0.00000  )

     Band symmetry, C_1 (1)     point group:

     e(  1 -  1) =    -21.73389  eV     1   --> A              
     e(  2 -  2) =    -21.69788  eV     1   --> A              
     e(  3 -  3) =     -9.65083  eV     1   --> A              
     e(  4 -  4) =     -9.34058  eV     1   --> A              
     e(  5 -  5) =     -7.86538  eV     1   --> A              
     e(  6 -  6) =     -7.77627  eV     1   --> A              
     e(  7 -  7) =     -7.22018  eV     1   --> A              
     e(  8 -  8) =     -6.39767  eV     1   --> A              
     e(  9 -  9) =     -2.98651  eV     1   --> A              
     e( 10 - 10) =      1.32232  eV     1   --> A              
     e( 11 - 11) =      3.18699  eV     1   --> A              
     e( 12 - 12) =      3.55068  eV     1   --> A              
     e( 13 - 13) =      4.58866  eV     1   --> A              
     e( 14 - 14) =      5.11433  eV     1   --> A              
     e( 15 - 15) =      6.09966  eV     1   --> A              
     e( 16 - 16) =      6.20382  eV     1   --> A              
     e( 17 - 17) =      6.58772  eV     1   --> A              
     e( 18 - 18) =      6.75391  eV     1   --> A              
     e( 19 - 19) =      7.52626  eV     1   --> A              
     e( 20 - 20) =      7.79367  eV     1   --> A              
     e( 21 - 21) =      7.98078  eV     1   --> A              
     e( 22 - 22) =      8.96933  eV     1   --> A              
     e( 23 - 23) =      9.74700  eV     1   --> A              
     e( 24 - 24) =     10.03104  eV     1   --> A              
     e( 25 - 25) =     10.82441  eV     1   --> A              
     e( 26 - 26) =     11.44125  eV     1   --> A              
     e( 27 - 27) =     11.68701  eV     1   --> A              
     e( 28 - 28) =     12.69969  eV     1   --> A              
     e( 29 - 29) =     12.96112  eV     1   --> A              
     e( 30 - 30) =     12.97331  eV     1   --> A              

 **************************************************************************

 **************************************************************************

                    xk=(   0.40426,   0.23288,   0.00000  )

     Band symmetry, C_1 (1)     point group:

     e(  1 -  1) =    -21.69030  eV     1   --> A              
     e(  2 -  2) =    -21.65609  eV     1   --> A              
     e(  3 -  3) =     -9.69244  eV     1   --> A              
     e(  4 -  4) =     -9.39996  eV     1   --> A              
     e(  5 -  5) =     -7.99773  eV     1   --> A              
     e(  6 -  6) =     -7.89941  eV     1   --> A              
     e(  7 -  7) =     -7.10097  eV     1   --> A              
     e(  8 -  8) =     -6.34263  eV     1   --> A              
     e(  9 -  9) =     -2.88868  eV     1   --> A              
     e( 10 - 10) =      1.04832  eV     1   --> A              
     e( 11 - 11) =      3.31018  eV     1   --> A              
     e( 12 - 12) =      3.44173  eV     1   --> A              
     e( 13 - 13) =      4.81254  eV     1   --> A              
     e( 14 - 14) =      5.25470  eV     1   --> A              
     e( 15 - 15) =      6.30164  eV     1   --> A              
     e( 16 - 16) =      6.42853  eV     1   --> A              
     e( 17 - 17) =      6.78635  eV     1   --> A              
     e( 18 - 18) =      7.03693  eV     1   --> A              
     e( 19 - 19) =      7.73950  eV     1   --> A              
     e( 20 - 20) =      7.76139  eV     1   --> A              
     e( 21 - 21) =      8.26302  eV     1   --> A              
     e( 22 - 22) =      9.12109  eV     1   --> A              
     e( 23 - 23) =      9.91742  eV     1   --> A              
     e( 24 - 24) =     10.05728  eV     1   --> A              
     e( 25 - 25) =     10.66863  eV     1   --> A              
     e( 26 - 26) =     11.68721  eV     1   --> A              
     e( 27 - 27) =     11.73205  eV     1   --> A              
     e( 28 - 28) =     12.56995  eV     1   --> A              
     e( 29 - 29) =     12.66606  eV     1   --> A              
     e( 30 - 30) =     12.74642  eV     1   --> A              

 **************************************************************************

 **************************************************************************

                    xk=(   0.42351,   0.24397,   0.00000  )

     Band symmetry, C_1 (1)     point group:

     e(  1 -  1) =    -21.65085  eV     1   --> A              
     e(  2 -  2) =    -21.61826  eV     1   --> A              
     e(  3 -  3) =     -9.71680  eV     1   --> A              
     e(  4 -  4) =     -9.43961  eV     1   --> A              
     e(  5 -  5) =     -8.13374  eV     1   --> A              
     e(  6 -  6) =     -8.02579  eV     1   --> A              
     e(  7 -  7) =     -6.98872  eV     1   --> A              
     e(  8 -  8) =     -6.29280  eV     1   --> A              
     e(  9 -  9) =     -2.78413  eV     1   --> A              
     e( 10 - 10) =      0.78840  eV     1   --> A              
     e( 11 - 11) =      3.31067  eV     1   --> A              
     e( 12 - 12) =      3.41869  eV     1   --> A              
     e( 13 - 13) =      5.05323  eV     1   --> A              
     e( 14 - 14) =      5.42977  eV     1   --> A              
     e( 15 - 15) =      6.32876  eV     1   --> A              
     e( 16 - 16) =      6.76953  eV     1   --> A              
     e( 17 - 17) =      7.06462  eV     1   --> A              
     e( 18 - 18) =      7.29102  eV     1   --> A              
     e( 19 - 19) =      7.72071  eV     1   --> A              
     e( 20 - 20) =      8.00216  eV     1   --> A              
     e( 21 - 21) =      8.58900  eV     1   --> A              
     e( 22 - 22) =      9.13709  eV     1   --> A              
     e( 23 - 23) =      9.99182  eV     1   --> A              
     e( 24 - 24) =     10.37655  eV     1   --> A              
     e( 25 - 25) =     10.49324  eV     1   --> A              
     e( 26 - 26) =     11.56653  eV     1   --> A              
     e( 27 - 27) =     12.00062  eV     1   --> A              
     e( 28 - 28) =     12.25452  eV     1   --> A              
     e( 29 - 29) =     12.41953  eV     1   --> A              
     e( 30 - 30) =     12.74732  eV     1   --> A              

 **************************************************************************

 **************************************************************************

                    xk=(   0.44276,   0.25506,   0.00000  )

     Band symmetry, C_1 (1)     point group:

     e(  1 -  1) =    -21.61593  eV     1   --> A              
     e(  2 -  2) =    -21.58476  eV     1   --> A              
     e(  3 -  3) =     -9.72292  eV     1   --> A              
     e(  4 -  4) =     -9.45910  eV     1   --> A              
     e(  5 -  5) =     -8.27249  eV     1   --> A              
     e(  6 -  6) =     -8.15455  eV     1   --> A              
     e(  7 -  7) =     -6.88633  eV     1   --> A              
     e(  8 -  8) =     -6.24872  eV     1   --> A              
     e(  9 -  9) =     -2.67259  eV     1   --> A              
     e( 10 - 10) =      0.54425  eV     1   --> A              
     e( 11 - 11) =      3.17250  eV     1   --> A              
     e( 12 - 12) =      3.51670  eV     1   --> A              
     e( 13 - 13) =      5.30401  eV     1   --> A              
     e( 14 - 14) =      5.62108  eV     1   --> A              
     e( 15 - 15) =      6.33410  eV     1   --> A              
     e( 16 - 16) =      7.10710  eV     1   --> A              
     e( 17 - 17) =      7.36883  eV     1   --> A              
     e( 18 - 18) =      7.43682  eV     1   --> A              
     e( 19 - 19) =      7.85843  eV     1   --> A              
     e( 20 - 20) =      8.21588  eV     1   --> A              
     e( 21 - 21) =      8.93097  eV     1   --> A              
     e( 22 - 22) =      9.09519  eV     1   --> A              
     e( 23 - 23) =     10.19731  eV     1   --> A              
     e( 24 - 24) =     10.32053  eV     1   --> A              
     e( 25 - 25) =     10.69329  eV     1   --> A              
     e( 26 - 26) =     11.38776  eV     1   --> A              
     e( 27 - 27) =     11.93059  eV     1   --> A              
     e( 28 - 28) =     11.99029  eV     1   --> A              
     e( 29 - 29) =     12.39254  eV     1   --> A              
     e( 30 - 30) =     12.52057  eV     1   --> A              

 **************************************************************************

 **************************************************************************

                    xk=(   0.46201,   0.26615,   0.00000  )

     Band symmetry, C_1 (1)     point group:

     e(  1 -  1) =    -21.58582  eV     1   --> A              
     e(  2 -  2) =    -21.55588  eV     1   --> A              
     e(  3 -  3) =     -9.71008  eV     1   --> A              
     e(  4 -  4) =     -9.45836  eV     1   --> A              
     e(  5 -  5) =     -8.41301  eV     1   --> A              
     e(  6 -  6) =     -8.28487  eV     1   --> A              
     e(  7 -  7) =     -6.79616  eV     1   --> A              
     e(  8 -  8) =     -6.21074  eV     1   --> A              
     e(  9 -  9) =     -2.55486  eV     1   --> A              
     e( 10 - 10) =      0.31809  eV     1   --> A              
     e( 11 - 11) =      3.03645  eV     1   --> A              
     e( 12 - 12) =      3.60709  eV     1   --> A              
     e( 13 - 13) =      5.55666  eV     1   --> A              
     e( 14 - 14) =      5.81404  eV     1   --> A              
     e( 15 - 15) =      6.33359  eV     1   --> A              
     e( 16 - 16) =      7.32676  eV     1   --> A              
     e( 17 - 17) =      7.60444  eV     1   --> A              
     e( 18 - 18) =      7.66196  eV     1   --> A              
     e( 19 - 19) =      8.13854  eV     1   --> A              
     e( 20 - 20) =      8.35870  eV     1   --> A              
     e( 21 - 21) =      9.14511  eV     1   --> A              
     e( 22 - 22) =      9.28613  eV     1   --> A              
     e( 23 - 23) =     10.08121  eV     1   --> A              
     e( 24 - 24) =     10.52091  eV     1   --> A              
     e( 25 - 25) =     10.92232  eV     1   --> A              
     e( 26 - 26) =     11.27216  eV     1   --> A              
     e( 27 - 27) =     11.62839  eV     1   --> A              
     e( 28 - 28) =     11.76226  eV     1   --> A              
     e( 29 - 29) =     12.14426  eV     1   --> A              
     e( 30 - 30) =     12.19087  eV     1   --> A              

 **************************************************************************

 **************************************************************************

                    xk=(   0.48126,   0.27724,   0.00000  )

     Band symmetry, C_1 (1)     point group:

     e(  1 -  1) =    -21.56068  eV     1   --> A              
     e(  2 -  2) =    -21.53177  eV     1   --> A              
     e(  3 -  3) =     -9.67805  eV     1   --> A              
     e(  4 -  4) =     -9.43745  eV     1   --> A              
     e(  5 -  5) =     -8.55427  eV     1   --> A              
     e(  6 -  6) =     -8.41585  eV     1   --> A              
     e(  7 -  7) =     -6.71993  eV     1   --> A              
     e(  8 -  8) =     -6.17908  eV     1   --> A              
     e(  9 -  9) =     -2.43345  eV     1   --> A              
     e( 10 - 10) =      0.11292  eV     1   --> A              
     e( 11 - 11) =      2.90844  eV     1   --> A              
     e( 12 - 12) =      3.69103  eV     1   --> A              
     e( 13 - 13) =      5.80108  eV     1   --> A              
     e( 14 - 14) =      5.99568  eV     1   --> A              
     e( 15 - 15) =      6.33204  eV     1   --> A              
     e( 16 - 16) =      7.36626  eV     1   --> A              
     e( 17 - 17) =      7.87401  eV     1   --> A              
     e( 18 - 18) =      7.94933  eV     1   --> A              
     e( 19 - 19) =      8.46734  eV     1   --> A              
     e( 20 - 20) =      8.48092  eV     1   --> A              
     e( 21 - 21) =      9.32951  eV     1   --> A              
     e( 22 - 22) =      9.65304  eV     1   --> A              
     e( 23 - 23) =      9.88504  eV     1   --> A              
     e( 24 - 24) =     10.81735  eV     1   --> A              
     e( 25 - 25) =     10.82851  eV     1   --> A              
     e( 26 - 26) =     11.28253  eV     1   --> A              
     e( 27 - 27) =     11.52865  eV     1   --> A              
     e( 28 - 28) =     11.53826  eV     1   --> A              
     e( 29 - 29) =     11.85000  eV     1   --> A              
     e( 30 - 30) =     11.86884  eV     1   --> A              

 **************************************************************************

 **************************************************************************

                    xk=(   0.50051,   0.28833,   0.00000  )

     Band symmetry, C_1 (1)     point group:

     e(  1 -  1) =    -21.54057  eV     1   --> A              
     e(  2 -  2) =    -21.51247  eV     1   --> A              
     e(  3 -  3) =     -9.62690  eV     1   --> A              
     e(  4 -  4) =     -9.39671  eV     1   --> A              
     e(  5 -  5) =     -8.69529  eV     1   --> A              
     e(  6 -  6) =     -8.54660  eV     1   --> A              
     e(  7 -  7) =     -6.65861  eV     1   --> A              
     e(  8 -  8) =     -6.15378  eV     1   --> A              
     e(  9 -  9) =     -2.31324  eV     1   --> A              
     e( 10 - 10) =     -0.06698  eV     1   --> A              
     e( 11 - 11) =      2.79292  eV     1   --> A              
     e( 12 - 12) =      3.76778  eV     1   --> A              
     e( 13 - 13) =      6.02430  eV     1   --> A              
     e( 14 - 14) =      6.15370  eV     1   --> A              
     e( 15 - 15) =      6.33115  eV     1   --> A              
     e( 16 - 16) =      7.38582  eV     1   --> A              
     e( 17 - 17) =      7.93796  eV     1   --> A              
     e( 18 - 18) =      8.33532  eV     1   --> A              
     e( 19 - 19) =      8.71493  eV     1   --> A              
     e( 20 - 20) =      8.81832  eV     1   --> A              
     e( 21 - 21) =      9.50490  eV     1   --> A              
     e( 22 - 22) =      9.79316  eV     1   --> A              
     e( 23 - 23) =     10.02815  eV     1   --> A              
     e( 24 - 24) =     10.62978  eV     1   --> A              
     e( 25 - 25) =     11.01795  eV     1   --> A              
     e( 26 - 26) =     11.03045  eV     1   --> A              
     e( 27 - 27) =     11.35680  eV     1   --> A              
     e( 28 - 28) =     11.53226  eV     1   --> A              
     e( 29 - 29) =     11.59679  eV     1   --> A              
     e( 30 - 30) =     11.61669  eV     1   --> A              

 **************************************************************************

 **************************************************************************

                    xk=(   0.51976,   0.29941,   0.00000  )

     Band symmetry, C_1 (1)     point group:

     e(  1 -  1) =    -21.52540  eV     1   --> A              
     e(  2 -  2) =    -21.49791  eV     1   --> A              
     e(  3 -  3) =     -9.55708  eV     1   --> A              
     e(  4 -  4) =     -9.33669  eV     1   --> A              
     e(  5 -  5) =     -8.83505  eV     1   --> A              
     e(  6 -  6) =     -8.67623  eV     1   --> A              
     e(  7 -  7) =     -6.61245  eV     1   --> A              
     e(  8 -  8) =     -6.13475  eV     1   --> A              
     e(  9 -  9) =     -2.20208  eV     1   --> A              
     e( 10 - 10) =     -0.21577  eV     1   --> A              
     e( 11 - 11) =      2.69397  eV     1   --> A              
     e( 12 - 12) =      3.83493  eV     1   --> A              
     e( 13 - 13) =      6.20914  eV     1   --> A              
     e( 14 - 14) =      6.27782  eV     1   --> A              
     e( 15 - 15) =      6.33307  eV     1   --> A              
     e( 16 - 16) =      7.41655  eV     1   --> A              
     e( 17 - 17) =      7.92952  eV     1   --> A              
     e( 18 - 18) =      8.72925  eV     1   --> A              
     e( 19 - 19) =      9.01259  eV     1   --> A              
     e( 20 - 20) =      9.18618  eV     1   --> A              
     e( 21 - 21) =      9.43646  eV     1   --> A              
     e( 22 - 22) =     10.02910  eV     1   --> A              
     e( 23 - 23) =     10.35250  eV     1   --> A              
     e( 24 - 24) =     10.48080  eV     1   --> A              
     e( 25 - 25) =     10.78781  eV     1   --> A              
     e( 26 - 26) =     10.91994  eV     1   --> A              
     e( 27 - 27) =     11.20311  eV     1   --> A              
     e( 28 - 28) =     11.24152  eV     1   --> A              
     e( 29 - 29) =     11.30647  eV     1   --> A              
     e( 30 - 30) =     11.64296  eV     1   --> A              

 **************************************************************************

 **************************************************************************

                    xk=(   0.53901,   0.31050,   0.00000  )

     Band symmetry, C_1 (1)     point group:

     e(  1 -  1) =    -21.51499  eV     1   --> A              
     e(  2 -  2) =    -21.48792  eV     1   --> A              
     e(  3 -  3) =     -9.46943  eV     1   --> A              
     e(  4 -  4) =     -9.25827  eV     1   --> A              
     e(  5 -  5) =     -8.97239  eV     1   --> A              
     e(  6 -  6) =     -8.80385  eV     1   --> A              
     e(  7 -  7) =     -6.58100  eV     1   --> A              
     e(  8 -  8) =     -6.12172  eV     1   --> A              
     e(  9 -  9) =     -2.11075  eV     1   --> A              
     e( 10 - 10) =     -0.32630  eV     1   --> A              
     e( 11 - 11) =      2.61604  eV     1   --> A              
     e( 12 - 12) =      3.88864  eV     1   --> A              
     e( 13 - 13) =      6.31115  eV     1   --> A              
     e( 14 - 14) =      6.36270  eV     1   --> A              
     e( 15 - 15) =      6.36733  eV     1   --> A              
     e( 16 - 16) =      7.45612  eV     1   --> A              
     e( 17 - 17) =      7.92497  eV     1   --> A              
     e( 18 - 18) =      9.11386  eV     1   --> A              
     e( 19 - 19) =      9.11801  eV     1   --> A              
     e( 20 - 20) =      9.55040  eV     1   --> A              
     e( 21 - 21) =      9.56802  eV     1   --> A              
     e( 22 - 22) =     10.23141  eV     1   --> A              
     e( 23 - 23) =     10.33397  eV     1   --> A              
     e( 24 - 24) =     10.50412  eV     1   --> A              
     e( 25 - 25) =     10.72833  eV     1   --> A              
     e( 26 - 26) =     10.85146  eV     1   --> A              
     e( 27 - 27) =     10.96307  eV     1   --> A              
     e( 28 - 28) =     10.98977  eV     1   --> A              
     e( 29 - 29) =     11.05046  eV     1   --> A              
     e( 30 - 30) =     11.60423  eV     1   --> A              

 **************************************************************************

 **************************************************************************

                    xk=(   0.55826,   0.32159,   0.00000  )

     Band symmetry, C_1 (1)     point group:

     e(  1 -  1) =    -21.50904  eV     1   --> A              
     e(  2 -  2) =    -21.48222  eV     1   --> A              
     e(  3 -  3) =     -9.36586  eV     1   --> A              
     e(  4 -  4) =     -9.16267  eV     1   --> A              
     e(  5 -  5) =     -9.10549  eV     1   --> A              
     e(  6 -  6) =     -8.92857  eV     1   --> A              
     e(  7 -  7) =     -6.56325  eV     1   --> A              
     e(  8 -  8) =     -6.11429  eV     1   --> A              
     e(  9 -  9) =     -2.05098  eV     1   --> A              
     e( 10 - 10) =     -0.39221  eV     1   --> A              
     e( 11 - 11) =      2.56442  eV     1   --> A              
     e( 12 - 12) =      3.92424  eV     1   --> A              
     e( 13 - 13) =      6.32052  eV     1   --> A              
     e( 14 - 14) =      6.40956  eV     1   --> A              
     e( 15 - 15) =      6.43613  eV     1   --> A              
     e( 16 - 16) =      7.49151  eV     1   --> A              
     e( 17 - 17) =      7.93834  eV     1   --> A              
     e( 18 - 18) =      9.03542  eV     1   --> A              
     e( 19 - 19) =      9.46172  eV     1   --> A              
     e( 20 - 20) =      9.89972  eV     1   --> A              
     e( 21 - 21) =      9.91270  eV     1   --> A              
     e( 22 - 22) =     10.14751  eV     1   --> A              
     e( 23 - 23) =     10.30192  eV     1   --> A              
     e( 24 - 24) =     10.41168  eV     1   --> A              
     e( 25 - 25) =     10.62478  eV     1   --> A              
     e( 26 - 26) =     10.70057  eV     1   --> A              
     e( 27 - 27) =     10.76958  eV     1   --> A              
     e( 28 - 28) =     10.92415  eV     1   --> A              
     e( 29 - 29) =     11.28094  eV     1   --> A              
     e( 30 - 30) =     11.41843  eV     1   --> A              

 **************************************************************************

 **************************************************************************

                    xk=(   0.57751,   0.33268,   0.00000  )

     Band symmetry, C_1 (1)     point group:

     e(  1 -  1) =    -21.50719  eV     1   --> A              
     e(  2 -  2) =    -21.48043  eV     1   --> A              
     e(  3 -  3) =     -9.27211  eV     1   --> A              
     e(  4 -  4) =     -9.20900  eV     1   --> A              
     e(  5 -  5) =     -9.05994  eV     1   --> A              
     e(  6 -  6) =     -9.04080  eV     1   --> A              
     e(  7 -  7) =     -6.55770  eV     1   --> A              
     e(  8 -  8) =     -6.11199  eV     1   --> A              
     e(  9 -  9) =     -2.03084  eV     1   --> A              
     e( 10 - 10) =     -0.41253  eV     1   --> A              
     e( 11 - 11) =      2.54549  eV     1   --> A              
     e( 12 - 12) =      3.93717  eV     1   --> A              
     e( 13 - 13) =      6.32140  eV     1   --> A              
     e( 14 - 14) =      6.42375  eV     1   --> A              
     e( 15 - 15) =      6.45926  eV     1   --> A              
     e( 16 - 16) =      7.50685  eV     1   --> A              
     e( 17 - 17) =      7.94894  eV     1   --> A              
     e( 18 - 18) =      8.99582  eV     1   --> A              
     e( 19 - 19) =      9.62563  eV     1   --> A              
     e( 20 - 20) =     10.02389  eV     1   --> A              
     e( 21 - 21) =     10.10284  eV     1   --> A              
     e( 22 - 22) =     10.17094  eV     1   --> A              
     e( 23 - 23) =     10.29449  eV     1   --> A              
     e( 24 - 24) =     10.44064  eV     1   --> A              
     e( 25 - 25) =     10.48722  eV     1   --> A              
     e( 26 - 26) =     10.51666  eV     1   --> A              
     e( 27 - 27) =     10.57907  eV     1   --> A              
     e( 28 - 28) =     11.06019  eV     1   --> A              
     e( 29 - 29) =     11.31207  eV     1   --> A              
     e( 30 - 30) =     11.62609  eV     1   --> A              

 **************************************************************************

 **************************************************************************

                    xk=(   0.57751,   0.32159,   0.00000  )

     Band symmetry, C_1 (1)     point group:

     e(  1 -  1) =    -21.50759  eV     1   --> A              
     e(  2 -  2) =    -21.48081  eV     1   --> A              
     e(  3 -  3) =     -9.31162  eV     1   --> A              
     e(  4 -  4) =     -9.16709  eV     1   --> A              
     e(  5 -  5) =     -9.11024  eV     1   --> A              
     e(  6 -  6) =     -8.98819  eV     1   --> A              
     e(  7 -  7) =     -6.55895  eV     1   --> A              
     e(  8 -  8) =     -6.11249  eV     1   --> A              
     e(  9 -  9) =     -2.03532  eV     1   --> A              
     e( 10 - 10) =     -0.40863  eV     1   --> A              
     e( 11 - 11) =      2.55084  eV     1   --> A              
     e( 12 - 12) =      3.93353  eV     1   --> A              
     e( 13 - 13) =      6.32121  eV     1   --> A              
     e( 14 - 14) =      6.42054  eV     1   --> A              
     e( 15 - 15) =      6.45405  eV     1   --> A              
     e( 16 - 16) =      7.50186  eV     1   --> A              
     e( 17 - 17) =      7.94521  eV     1   --> A              
     e( 18 - 18) =      9.00667  eV     1   --> A              
     e( 19 - 19) =      9.59753  eV     1   --> A              
     e( 20 - 20) =      9.95686  eV     1   --> A              
     e( 21 - 21) =     10.11579  eV     1   --> A              
     e( 22 - 22) =     10.17591  eV     1   --> A              
     e( 23 - 23) =     10.27041  eV     1   --> A              
     e( 24 - 24) =     10.36052  eV     1   --> A              
     e( 25 - 25) =     10.44356  eV     1   --> A              
     e( 26 - 26) =     10.58970  eV     1   --> A              
     e( 27 - 27) =     10.73403  eV     1   --> A              
     e( 28 - 28) =     11.02678  eV     1   --> A              
     e( 29 - 29) =     11.30756  eV     1   --> A              
     e( 30 - 30) =     11.55021  eV     1   --> A              

 **************************************************************************

 **************************************************************************

                    xk=(   0.57751,   0.31050,   0.00000  )

     Band symmetry, C_1 (1)     point group:

     e(  1 -  1) =    -21.50883  eV     1   --> A              
     e(  2 -  2) =    -21.48201  eV     1   --> A              
     e(  3 -  3) =     -9.37046  eV     1   --> A              
     e(  4 -  4) =     -9.16759  eV     1   --> A              
     e(  5 -  5) =     -9.10120  eV     1   --> A              
     e(  6 -  6) =     -8.92401  eV     1   --> A              
     e(  7 -  7) =     -6.56258  eV     1   --> A              
     e(  8 -  8) =     -6.11404  eV     1   --> A              
     e(  9 -  9) =     -2.04890  eV     1   --> A              
     e( 10 - 10) =     -0.39732  eV     1   --> A              
     e( 11 - 11) =      2.56707  eV     1   --> A              
     e( 12 - 12) =      3.92304  eV     1   --> A              
     e( 13 - 13) =      6.31992  eV     1   --> A              
     e( 14 - 14) =      6.41131  eV     1   --> A              
     e( 15 - 15) =      6.43989  eV     1   --> A              
     e( 16 - 16) =      7.48834  eV     1   --> A              
     e( 17 - 17) =      7.93606  eV     1   --> A              
     e( 18 - 18) =      9.03481  eV     1   --> A              
     e( 19 - 19) =      9.53580  eV     1   --> A              
     e( 20 - 20) =      9.86268  eV     1   --> A              
     e( 21 - 21) =     10.03430  eV     1   --> A              
     e( 22 - 22) =     10.18621  eV     1   --> A              
     e( 23 - 23) =     10.19340  eV     1   --> A              
     e( 24 - 24) =     10.29416  eV     1   --> A              
     e( 25 - 25) =     10.45251  eV     1   --> A              
     e( 26 - 26) =     10.70833  eV     1   --> A              
     e( 27 - 27) =     10.96316  eV     1   --> A              
     e( 28 - 28) =     10.98404  eV     1   --> A              
     e( 29 - 29) =     11.27990  eV     1   --> A              
     e( 30 - 30) =     11.44512  eV     1   --> A              

 **************************************************************************

 **************************************************************************

                    xk=(   0.57751,   0.29941,   0.00000  )

     Band symmetry, C_1 (1)     point group:

     e(  1 -  1) =    -21.51085  eV     1   --> A              
     e(  2 -  2) =    -21.48394  eV     1   --> A              
     e(  3 -  3) =     -9.43019  eV     1   --> A              
     e(  4 -  4) =     -9.22392  eV     1   --> A              
     e(  5 -  5) =     -9.02993  eV     1   --> A              
     e(  6 -  6) =     -8.85648  eV     1   --> A              
     e(  7 -  7) =     -6.56835  eV     1   --> A              
     e(  8 -  8) =     -6.11653  eV     1   --> A              
     e(  9 -  9) =     -2.07041  eV     1   --> A              
     e( 10 - 10) =     -0.38088  eV     1   --> A              
     e( 11 - 11) =      2.59506  eV     1   --> A              
     e( 12 - 12) =      3.90559  eV     1   --> A              
     e( 13 - 13) =      6.31589  eV     1   --> A              
     e( 14 - 14) =      6.39659  eV     1   --> A              
     e( 15 - 15) =      6.41912  eV     1   --> A              
     e( 16 - 16) =      7.46619  eV     1   --> A              
     e( 17 - 17) =      7.92386  eV     1   --> A              
     e( 18 - 18) =      9.07500  eV     1   --> A              
     e( 19 - 19) =      9.46027  eV     1   --> A              
     e( 20 - 20) =      9.76817  eV     1   --> A              
     e( 21 - 21) =      9.95656  eV     1   --> A              
     e( 22 - 22) =     10.09826  eV     1   --> A              
     e( 23 - 23) =     10.10352  eV     1   --> A              
     e( 24 - 24) =     10.21484  eV     1   --> A              
     e( 25 - 25) =     10.59141  eV     1   --> A              
     e( 26 - 26) =     10.73651  eV     1   --> A              
     e( 27 - 27) =     10.99520  eV     1   --> A              
     e( 28 - 28) =     11.20106  eV     1   --> A              
     e( 29 - 29) =     11.28190  eV     1   --> A              
     e( 30 - 30) =     11.34238  eV     1   --> A              

 **************************************************************************

 **************************************************************************

                    xk=(   0.57751,   0.28833,   0.00000  )

     Band symmetry, C_1 (1)     point group:

     e(  1 -  1) =    -21.51357  eV     1   --> A              
     e(  2 -  2) =    -21.48656  eV     1   --> A              
     e(  3 -  3) =     -9.48908  eV     1   --> A              
     e(  4 -  4) =     -9.27897  eV     1   --> A              
     e(  5 -  5) =     -8.95519  eV     1   --> A              
     e(  6 -  6) =     -8.78608  eV     1   --> A              
     e(  7 -  7) =     -6.57606  eV     1   --> A              
[...]

 **************************************************************************

                    xk=(   0.15400,   0.00000,   0.00000  )

     Band symmetry, C_s (m)     point group:

     e(  1 -  1) =    -22.39740  eV     1   --> A'             
     e(  2 -  2) =    -22.33512  eV     1   --> A'             
     e(  3 -  3) =     -9.26535  eV     1   --> A'             
     e(  4 -  4) =     -7.37556  eV     1   --> A'             
     e(  5 -  5) =     -7.29911  eV     1   --> A'             
     e(  6 -  6) =     -7.18218  eV     1   --> A'             
     e(  7 -  7) =     -6.71484  eV     1   --> A''            
     e(  8 -  8) =     -6.69041  eV     1   --> A''            
     e(  9 -  9) =     -4.05706  eV     1   --> A'             
     e( 10 - 10) =      0.47953  eV     1   --> A'             
     e( 11 - 11) =      2.07114  eV     1   --> A'             
     e( 12 - 12) =      2.78930  eV     1   --> A'             
     e( 13 - 13) =      3.12607  eV     1   --> A'             
     e( 14 - 14) =      3.69862  eV     1   --> A'             
     e( 15 - 15) =      3.82527  eV     1   --> A'             
     e( 16 - 16) =      4.82073  eV     1   --> A'             
     e( 17 - 17) =      5.32764  eV     1   --> A'             
     e( 18 - 18) =      6.17343  eV     1   --> A'             
     e( 19 - 19) =      6.69136  eV     1   --> A'             
     e( 20 - 20) =      6.93768  eV     1   --> A'             
     e( 21 - 21) =      8.27442  eV     1   --> A''            
     e( 22 - 22) =      8.47254  eV     1   --> A'             
     e( 23 - 23) =      8.78078  eV     1   --> A'             
     e( 24 - 24) =      9.19066  eV     1   --> A'             
     e( 25 - 25) =     10.33297  eV     1   --> A''            
     e( 26 - 26) =     10.34936  eV     1   --> A'             
     e( 27 - 27) =     11.38866  eV     1   --> A'             
     e( 28 - 28) =     12.16148  eV     1   --> A''            
     e( 29 - 29) =     12.21462  eV     1   --> A'             
     e( 30 - 30) =     13.54512  eV     1   --> A'             

 **************************************************************************

 **************************************************************************

                    xk=(   0.13475,   0.00000,   0.00000  )

     Band symmetry, C_s (m)     point group:

     e(  1 -  1) =    -22.42816  eV     1   --> A'             
     e(  2 -  2) =    -22.36471  eV     1   --> A'             
     e(  3 -  3) =     -9.30980  eV     1   --> A'             
     e(  4 -  4) =     -7.32195  eV     1   --> A'             
     e(  5 -  5) =     -7.16250  eV     1   --> A'             
     e(  6 -  6) =     -7.11880  eV     1   --> A'             
     e(  7 -  7) =     -6.68861  eV     1   --> A''            
     e(  8 -  8) =     -6.66485  eV     1   --> A''            
     e(  9 -  9) =     -4.12358  eV     1   --> A'             
     e( 10 - 10) =      0.31914  eV     1   --> A'             
     e( 11 - 11) =      1.98181  eV     1   --> A'             
     e( 12 - 12) =      2.70905  eV     1   --> A'             
     e( 13 - 13) =      3.02811  eV     1   --> A'             
     e( 14 - 14) =      3.59337  eV     1   --> A'             
     e( 15 - 15) =      3.74372  eV     1   --> A'             
     e( 16 - 16) =      4.73743  eV     1   --> A'             
     e( 17 - 17) =      5.27104  eV     1   --> A'             
     e( 18 - 18) =      6.42356  eV     1   --> A'             
     e( 19 - 19) =      6.65202  eV     1   --> A'             
     e( 20 - 20) =      6.95084  eV     1   --> A'             
     e( 21 - 21) =      8.33348  eV     1   --> A''            
     e( 22 - 22) =      8.41399  eV     1   --> A'             
     e( 23 - 23) =      8.94506  eV     1   --> A'             
     e( 24 - 24) =      9.21301  eV     1   --> A'             
     e( 25 - 25) =     10.22896  eV     1   --> A''            
     e( 26 - 26) =     10.53788  eV     1   --> A'             
     e( 27 - 27) =     11.30127  eV     1   --> A'             
     e( 28 - 28) =     12.10591  eV     1   --> A''            
     e( 29 - 29) =     12.10880  eV     1   --> A'             
     e( 30 - 30) =     13.49169  eV     1   --> A'             

 **************************************************************************

 **************************************************************************

                    xk=(   0.11550,   0.00000,   0.00000  )

     Band symmetry, C_s (m)     point group:

     e(  1 -  1) =    -22.45531  eV     1   --> A'             
     e(  2 -  2) =    -22.39084  eV     1   --> A'             
     e(  3 -  3) =     -9.35106  eV     1   --> A'             
     e(  4 -  4) =     -7.33162  eV     1   --> A'             
     e(  5 -  5) =     -7.03129  eV     1   --> A'             
     e(  6 -  6) =     -6.99962  eV     1   --> A'             
     e(  7 -  7) =     -6.66507  eV     1   --> A''            
     e(  8 -  8) =     -6.64194  eV     1   --> A''            
     e(  9 -  9) =     -4.18781  eV     1   --> A'             
     e( 10 - 10) =      0.17127  eV     1   --> A'             
     e( 11 - 11) =      1.90106  eV     1   --> A'             
     e( 12 - 12) =      2.63795  eV     1   --> A'             
     e( 13 - 13) =      2.94189  eV     1   --> A'             
     e( 14 - 14) =      3.49784  eV     1   --> A'             
     e( 15 - 15) =      3.67236  eV     1   --> A'             
     e( 16 - 16) =      4.65907  eV     1   --> A'             
     e( 17 - 17) =      5.22052  eV     1   --> A'             
     e( 18 - 18) =      6.53659  eV     1   --> A'             
     e( 19 - 19) =      6.61797  eV     1   --> A'             
     e( 20 - 20) =      7.11717  eV     1   --> A'             
     e( 21 - 21) =      8.34225  eV     1   --> A'             
     e( 22 - 22) =      8.38226  eV     1   --> A''            
     e( 23 - 23) =      9.13584  eV     1   --> A'             
     e( 24 - 24) =      9.20338  eV     1   --> A'             
     e( 25 - 25) =     10.13533  eV     1   --> A''            
     e( 26 - 26) =     10.76438  eV     1   --> A'             
     e( 27 - 27) =     11.22435  eV     1   --> A'             
     e( 28 - 28) =     11.98478  eV     1   --> A'             
     e( 29 - 29) =     12.07298  eV     1   --> A''            
     e( 30 - 30) =     13.39789  eV     1   --> A'             

 **************************************************************************

 **************************************************************************

                    xk=(   0.09625,   0.00000,   0.00000  )

     Band symmetry, C_s (m)     point group:

     e(  1 -  1) =    -22.47866  eV     1   --> A'             
     e(  2 -  2) =    -22.41331  eV     1   --> A'             
     e(  3 -  3) =     -9.38772  eV     1   --> A'             
     e(  4 -  4) =     -7.35260  eV     1   --> A'             
     e(  5 -  5) =     -6.90978  eV     1   --> A'             
     e(  6 -  6) =     -6.87938  eV     1   --> A'             
     e(  7 -  7) =     -6.64460  eV     1   --> A''            
     e(  8 -  8) =     -6.62201  eV     1   --> A''            
     e(  9 -  9) =     -4.24829  eV     1   --> A'             
     e( 10 - 10) =      0.03892  eV     1   --> A'             
     e( 11 - 11) =      1.83023  eV     1   --> A'             
     e( 12 - 12) =      2.57672  eV     1   --> A'             
     e( 13 - 13) =      2.86795  eV     1   --> A'             
     e( 14 - 14) =      3.41450  eV     1   --> A'             
     e( 15 - 15) =      3.61148  eV     1   --> A'             
     e( 16 - 16) =      4.58995  eV     1   --> A'             
     e( 17 - 17) =      5.17667  eV     1   --> A'             
     e( 18 - 18) =      6.53955  eV     1   --> A'             
     e( 19 - 19) =      6.58945  eV     1   --> A'             
     e( 20 - 20) =      7.39928  eV     1   --> A'             
     e( 21 - 21) =      8.27656  eV     1   --> A'             
     e( 22 - 22) =      8.42095  eV     1   --> A''            
     e( 23 - 23) =      9.17711  eV     1   --> A'             
     e( 24 - 24) =      9.32634  eV     1   --> A'             
     e( 25 - 25) =     10.05361  eV     1   --> A''            
     e( 26 - 26) =     10.99440  eV     1   --> A'             
     e( 27 - 27) =     11.15837  eV     1   --> A'             
     e( 28 - 28) =     11.85710  eV     1   --> A'             
     e( 29 - 29) =     12.05940  eV     1   --> A''            
     e( 30 - 30) =     13.28635  eV     1   --> A'             

 **************************************************************************

 **************************************************************************

                    xk=(   0.07700,   0.00000,   0.00000  )

     Band symmetry, C_s (m)     point group:

     e(  1 -  1) =    -22.49801  eV     1   --> A'             
     e(  2 -  2) =    -22.43194  eV     1   --> A'             
     e(  3 -  3) =     -9.41877  eV     1   --> A'             
     e(  4 -  4) =     -7.37290  eV     1   --> A'             
     e(  5 -  5) =     -6.80207  eV     1   --> A'             
     e(  6 -  6) =     -6.77272  eV     1   --> A'             
     e(  7 -  7) =     -6.62742  eV     1   --> A''            
     e(  8 -  8) =     -6.60530  eV     1   --> A''            
     e(  9 -  9) =     -4.30304  eV     1   --> A'             
     e( 10 - 10) =     -0.07487  eV     1   --> A'             
     e( 11 - 11) =      1.77046  eV     1   --> A'             
     e( 12 - 12) =      2.52593  eV     1   --> A'             
     e( 13 - 13) =      2.80672  eV     1   --> A'             
     e( 14 - 14) =      3.34489  eV     1   --> A'             
     e( 15 - 15) =      3.56130  eV     1   --> A'             
     e( 16 - 16) =      4.53207  eV     1   --> A'             
     e( 17 - 17) =      5.14001  eV     1   --> A'             
     e( 18 - 18) =      6.51312  eV     1   --> A'             
     e( 19 - 19) =      6.56644  eV     1   --> A'             
     e( 20 - 20) =      7.70684  eV     1   --> A'             
     e( 21 - 21) =      8.22114  eV     1   --> A'             
     e( 22 - 22) =      8.45027  eV     1   --> A''            
     e( 23 - 23) =      9.14297  eV     1   --> A'             
     e( 24 - 24) =      9.50392  eV     1   --> A'             
     e( 25 - 25) =      9.98508  eV     1   --> A''            
     e( 26 - 26) =     11.10354  eV     1   --> A'             
     e( 27 - 27) =     11.17184  eV     1   --> A'             
     e( 28 - 28) =     11.76981  eV     1   --> A'             
     e( 29 - 29) =     12.06055  eV     1   --> A''            
     e( 30 - 30) =     13.17444  eV     1   --> A'             

 **************************************************************************

 **************************************************************************

                    xk=(   0.05775,   0.00000,   0.00000  )

     Band symmetry, C_s (m)     point group:

     e(  1 -  1) =    -22.51322  eV     1   --> A'             
     e(  2 -  2) =    -22.44657  eV     1   --> A'             
     e(  3 -  3) =     -9.44352  eV     1   --> A'             
     e(  4 -  4) =     -7.38975  eV     1   --> A'             
     e(  5 -  5) =     -6.71233  eV     1   --> A'             
     e(  6 -  6) =     -6.68518  eV     1   --> A'             
     e(  7 -  7) =     -6.61381  eV     1   --> A''            
     e(  8 -  8) =     -6.59204  eV     1   --> A''            
     e(  9 -  9) =     -4.34970  eV     1   --> A'             
     e( 10 - 10) =     -0.16716  eV     1   --> A'             
     e( 11 - 11) =      1.72278  eV     1   --> A'             
     e( 12 - 12) =      2.48603  eV     1   --> A'             
     e( 13 - 13) =      2.75862  eV     1   --> A'             
     e( 14 - 14) =      3.28999  eV     1   --> A'             
     e( 15 - 15) =      3.52206  eV     1   --> A'             
     e( 16 - 16) =      4.48642  eV     1   --> A'             
     e( 17 - 17) =      5.11101  eV     1   --> A'             
     e( 18 - 18) =      6.48451  eV     1   --> A'             
     e( 19 - 19) =      6.54880  eV     1   --> A'             
     e( 20 - 20) =      8.00076  eV     1   --> A'             
     e( 21 - 21) =      8.17738  eV     1   --> A'             
     e( 22 - 22) =      8.47131  eV     1   --> A''            
     e( 23 - 23) =      9.10456  eV     1   --> A'             
     e( 24 - 24) =      9.65791  eV     1   --> A'             
     e( 25 - 25) =      9.93075  eV     1   --> A''            
     e( 26 - 26) =     11.06031  eV     1   --> A'             
     e( 27 - 27) =     11.20585  eV     1   --> A'             
     e( 28 - 28) =     11.80886  eV     1   --> A'             
     e( 29 - 29) =     12.07076  eV     1   --> A''            
     e( 30 - 30) =     13.07143  eV     1   --> A'             

 **************************************************************************

 **************************************************************************

                    xk=(   0.03850,   0.00000,   0.00000  )

     Band symmetry, C_s (m)     point group:

     e(  1 -  1) =    -22.52416  eV     1   --> A'             
     e(  2 -  2) =    -22.45711  eV     1   --> A'             
     e(  3 -  3) =     -9.46150  eV     1   --> A'             
     e(  4 -  4) =     -7.40217  eV     1   --> A'             
     e(  5 -  5) =     -6.64455  eV     1   --> A'             
     e(  6 -  6) =     -6.62016  eV     1   --> A'             
     e(  7 -  7) =     -6.60393  eV     1   --> A''            
     e(  8 -  8) =     -6.58241  eV     1   --> A''            
     e(  9 -  9) =     -4.38567  eV     1   --> A'             
     e( 10 - 10) =     -0.23528  eV     1   --> A'             
     e( 11 - 11) =      1.68805  eV     1   --> A'             
     e( 12 - 12) =      2.45731  eV     1   --> A'             
     e( 13 - 13) =      2.72400  eV     1   --> A'             
     e( 14 - 14) =      3.25043  eV     1   --> A'             
     e( 15 - 15) =      3.49391  eV     1   --> A'             
     e( 16 - 16) =      4.45355  eV     1   --> A'             
     e( 17 - 17) =      5.09003  eV     1   --> A'             
     e( 18 - 18) =      6.46155  eV     1   --> A'             
     e( 19 - 19) =      6.53637  eV     1   --> A'             
     e( 20 - 20) =      8.14586  eV     1   --> A'             
     e( 21 - 21) =      8.25611  eV     1   --> A'             
     e( 22 - 22) =      8.48523  eV     1   --> A''            
     e( 23 - 23) =      9.06278  eV     1   --> A'             
     e( 24 - 24) =      9.77794  eV     1   --> A'             
     e( 25 - 25) =      9.89141  eV     1   --> A''            
     e( 26 - 26) =     11.02889  eV     1   --> A'             
     e( 27 - 27) =     11.12401  eV     1   --> A'             
     e( 28 - 28) =     11.94709  eV     1   --> A'             
     e( 29 - 29) =     12.08397  eV     1   --> A''            
     e( 30 - 30) =     12.98240  eV     1   --> A'             

 **************************************************************************

 **************************************************************************

                    xk=(   0.01925,   0.00000,   0.00000  )

     Band symmetry, C_s (m)     point group:

     e(  1 -  1) =    -22.53076  eV     1   --> A'             
     e(  2 -  2) =    -22.46346  eV     1   --> A'             
     e(  3 -  3) =     -9.47239  eV     1   --> A'             
     e(  4 -  4) =     -7.40975  eV     1   --> A'             
     e(  5 -  5) =     -6.60225  eV     1   --> A'             
     e(  6 -  6) =     -6.59793  eV     1   --> A''            
     e(  7 -  7) =     -6.58011  eV     1   --> A'             
     e(  8 -  8) =     -6.57658  eV     1   --> A''            
     e(  9 -  9) =     -4.40847  eV     1   --> A'             
     e( 10 - 10) =     -0.27709  eV     1   --> A'             
     e( 11 - 11) =      1.66692  eV     1   --> A'             
     e( 12 - 12) =      2.44000  eV     1   --> A'             
     e( 13 - 13) =      2.70311  eV     1   --> A'             
     e( 14 - 14) =      3.22657  eV     1   --> A'             
     e( 15 - 15) =      3.47697  eV     1   --> A'             
     e( 16 - 16) =      4.43373  eV     1   --> A'             
     e( 17 - 17) =      5.07734  eV     1   --> A'             
     e( 18 - 18) =      6.44706  eV     1   --> A'             
     e( 19 - 19) =      6.52897  eV     1   --> A'             
     e( 20 - 20) =      8.12687  eV     1   --> A'             
     e( 21 - 21) =      8.44290  eV     1   --> A'             
     e( 22 - 22) =      8.49311  eV     1   --> A''            
     e( 23 - 23) =      9.02143  eV     1   --> A'             
     e( 24 - 24) =      9.85461  eV     1   --> A'             
     e( 25 - 25) =      9.86758  eV     1   --> A''            
     e( 26 - 26) =     11.00963  eV     1   --> A'             
     e( 27 - 27) =     11.03650  eV     1   --> A'             
     e( 28 - 28) =     12.07453  eV     1   --> A'             
     e( 29 - 29) =     12.09458  eV     1   --> A''            
     e( 30 - 30) =     12.91570  eV     1   --> A'             

 **************************************************************************

 **************************************************************************

                    xk=(   0.00000,   0.00000,   0.00000  )

     Band symmetry, C_s (m)     point group:

     e(  1 -  1) =    -22.53297  eV     1   --> A'             
     e(  2 -  2) =    -22.46558  eV     1   --> A'             
     e(  3 -  3) =     -9.47604  eV     1   --> A'             
     e(  4 -  4) =     -7.41229  eV     1   --> A'             
     e(  5 -  5) =     -6.59594  eV     1   --> A''            
     e(  6 -  6) =     -6.58786  eV     1   --> A'             
     e(  7 -  7) =     -6.57463  eV     1   --> A''            
     e(  8 -  8) =     -6.56660  eV     1   --> A'             
     e(  9 -  9) =     -4.41630  eV     1   --> A'             
     e( 10 - 10) =     -0.29118  eV     1   --> A'             
     e( 11 - 11) =      1.65983  eV     1   --> A'             
     e( 12 - 12) =      2.43421  eV     1   --> A'             
     e( 13 - 13) =      2.69613  eV     1   --> A'             
     e( 14 - 14) =      3.21860  eV     1   --> A'             
     e( 15 - 15) =      3.47132  eV     1   --> A'             
     e( 16 - 16) =      4.42711  eV     1   --> A'             
     e( 17 - 17) =      5.07309  eV     1   --> A'             
     e( 18 - 18) =      6.44214  eV     1   --> A'             
     e( 19 - 19) =      6.52652  eV     1   --> A'             
     e( 20 - 20) =      8.12052  eV     1   --> A'             
     e( 21 - 21) =      8.49565  eV     1   --> A''            
     e( 22 - 22) =      8.51594  eV     1   --> A'             
     e( 23 - 23) =      9.00060  eV     1   --> A'             
     e( 24 - 24) =      9.85961  eV     1   --> A''            
     e( 25 - 25) =      9.88102  eV     1   --> A'             
     e( 26 - 26) =     10.99995  eV     1   --> A'             
     e( 27 - 27) =     11.00451  eV     1   --> A'             
     e( 28 - 28) =     12.09860  eV     1   --> A''            
     e( 29 - 29) =     12.12556  eV     1   --> A'             
     e( 30 - 30) =     12.88919  eV     1   --> A'             

 **************************************************************************
 
     BANDS        :      6.24s CPU      7.64s WALL

 
   This run was terminated on:  12:41:59  22Jun2023            

=------------------------------------------------------------------------------=
   JOB DONE.
=------------------------------------------------------------------------------=
