
     Program PWSCF v.7.1 starts on 22Jun2023 at 12:40: 1 

     This program is part of the open-source Quantum ESPRESSO suite
     for quantum simulation of materials; please cite
         "P. Giannozzi et al., J. Phys.:Condens. Matter 21 395502 (2009);
         "P. Giannozzi et al., J. Phys.:Condens. Matter 29 465901 (2017);
         "P. Giannozzi et al., J. Chem. Phys. 152 154105 (2020);
          URL http://www.quantum-espresso.org", 
     in publications or presentations arising from this work. More details at
     http://www.quantum-espresso.org/quote

     Parallel version (MPI), running on    10 processors

     MPI processes distributed on     1 nodes
     43967 MiB available memory on the printing compute node when the environment starts
 
     Waiting for input...
     Reading input from standard input

     Current dimensions of program PWSCF are:
     Max number of different atomic species (ntypx) = 10
     Max number of k-points (npk) =  40000
     Max angular momentum in pseudopotentials (lmaxx) =  4
     Message from routine volume:
     axis vectors are left-handed
     file Al.pbe-n-kjpaw_psl.1.0.0.UPF: wavefunction(s)  3S 3P renormalized
     file O.pbe-n-kjpaw_psl.1.0.0.UPF: wavefunction(s)  2S 2P renormalized

     IMPORTANT: XC functional enforced from input :
     Exchange-correlation= VDW-DF2-B86R
                           (   1   4  26   0   2   0   0)
     Any further DFT definition will be discarded
     Please, verify this is what you really want

     Message from routine setup:
     using ibrav=0 with symmetry is DISCOURAGED, use correct ibrav instead
 
     R & G space division:  proc/nbgrp/npool/nimage =      10
     Subspace diagonalization in iterative solution of the eigenvalue problem:
     a serial algorithm will be used

 
     Parallelization info
     --------------------
     sticks:   dense  smooth     PW     G-vecs:    dense   smooth      PW
     Min          51      51     16                 8069     8069    1456
     Max          52      52     17                 8098     8098    1489
     Sum         511     511    163                80759    80759   14675
 
     Using Slab Decomposition
 


     bravais-lattice index     =            0
     lattice parameter (alat)  =       5.6077  a.u.
     unit-cell volume          =    1287.2819 (a.u.)^3
     number of atoms/cell      =            4
     number of atomic types    =            2
     number of electrons       =        18.00
     number of Kohn-Sham states=           30
     kinetic-energy cutoff     =      60.0000  Ry
     charge density cutoff     =     240.0000  Ry
     scf convergence threshold =      1.0E-08
     mixing beta               =       0.5000
     number of iterations used =            8  plain     mixing
     Exchange-correlation= VDW-DF2-B86R
                           (   1   4  26   0   2   0   0)

     celldm(1)=   5.607660  celldm(2)=   0.000000  celldm(3)=   0.000000
     celldm(4)=   0.000000  celldm(5)=   0.000000  celldm(6)=   0.000000

     crystal axes: (cart. coord. in units of alat)
               a(1) = (   0.865785   0.500416   0.000000 )  
               a(2) = (   0.865785  -0.500416   0.000000 )  
               a(3) = (   0.000000   0.000000   8.424753 )  

     reciprocal axes: (cart. coord. in units 2 pi/alat)
               b(1) = (  0.577511  0.999168  0.000000 )  
               b(2) = (  0.577511 -0.999168  0.000000 )  
               b(3) = (  0.000000  0.000000  0.118698 )  


     PseudoPot. # 1 for Al read from file:
     /home/mainadmin/research/danu/pseudo/Al.pbe-n-kjpaw_psl.1.0.0.UPF
     MD5 check sum: 502b6b27b9c6270cab5dd1084b96fa6d
     Pseudo is Projector augmented-wave + core cor, Zval =  3.0
     Generated using &quot;atomic&quot; code by A. Dal Corso  v.6.3
     Shape of augmentation charge: PSQ
     Using radial grid of 1135 points,  6 beta functions with: 
                l(1) =   0
                l(2) =   0
                l(3) =   1
                l(4) =   1
                l(5) =   2
                l(6) =   2
     Q(r) pseudized with 0 coefficients 


     PseudoPot. # 2 for O  read from file:
     /home/mainadmin/research/danu/pseudo/O.pbe-n-kjpaw_psl.1.0.0.UPF
     MD5 check sum: e99d9cef9b487d1ca56f5b95ecd0fd7a
     Pseudo is Projector augmented-wave + core cor, Zval =  6.0
     Generated using &quot;atomic&quot; code by A. Dal Corso  v.6.3
     Shape of augmentation charge: PSQ
     Using radial grid of 1095 points,  4 beta functions with: 
                l(1) =   0
                l(2) =   0
                l(3) =   1
                l(4) =   1
     Q(r) pseudized with 0 coefficients 


     atomic species   valence    mass     pseudopotential
        Al             3.00    26.98100     Al( 1.00)
        O              6.00    15.99900     O ( 1.00)

      2 Sym. Ops. (no inversion) found


                                    s                        frac. trans.

      isym =  1     identity                                     

 cryst.   s( 1) = (     1          0          0      )
                  (     0          1          0      )
                  (     0          0          1      )

 cart.    s( 1) = (  1.0000000  0.0000000  0.0000000 )
                  (  0.0000000  1.0000000  0.0000000 )
                  (  0.0000000  0.0000000  1.0000000 )


      isym =  2     inv. 180 deg rotation - cart. axis [0,1,0]   

 cryst.   s( 2) = (     0          1          0      )
                  (     1          0          0      )
                  (     0          0          1      )

 cart.    s( 2) = (  1.0000000  0.0000000  0.0000000 )
                  (  0.0000000 -1.0000000  0.0000000 )
                  (  0.0000000  0.0000000  1.0000000 )


   Cartesian axes

     site n.     atom                  positions (alat units)
         1           O   tau(   1) = (   1.1545543   0.0000000   3.5627092  )
         2           Al  tau(   2) = (   0.5770722   0.0000000   3.7830565  )
         3           Al  tau(   3) = (   0.5770183   0.0000000   4.6637429  )
         4           O   tau(   4) = (   1.1544952   0.0000000   4.8840673  )

   Crystallographic axes

     site n.     atom                  positions (cryst. coord.)
         1           O   tau(   1) = (  0.6667673  0.6667673  0.4228859  )
         2           Al  tau(   2) = (  0.3332653  0.3332653  0.4490406  )
         3           Al  tau(   3) = (  0.3332342  0.3332342  0.5535762  )
         4           O   tau(   4) = (  0.6667332  0.6667332  0.5797282  )

     number of k points=    49
                       cart. coord. in units 2pi/alat
        k(    1) = (   0.0000000   0.0000000   0.0000000), wk =   0.0118343
        k(    2) = (   0.0444239  -0.0768591   0.0000000), wk =   0.0473373
        k(    3) = (   0.0888478  -0.1537182   0.0000000), wk =   0.0473373
        k(    4) = (   0.1332717  -0.2305773   0.0000000), wk =   0.0473373
        k(    5) = (   0.1776956  -0.3074364   0.0000000), wk =   0.0473373
        k(    6) = (   0.2221195  -0.3842955   0.0000000), wk =   0.0473373
        k(    7) = (   0.2665433  -0.4611546   0.0000000), wk =   0.0473373
        k(    8) = (   0.0888478   0.0000000   0.0000000), wk =   0.0236686
        k(    9) = (   0.1332717  -0.0768591   0.0000000), wk =   0.0473373
        k(   10) = (   0.1776956  -0.1537182   0.0000000), wk =   0.0473373
        k(   11) = (   0.2221195  -0.2305773   0.0000000), wk =   0.0473373
        k(   12) = (   0.2665433  -0.3074364   0.0000000), wk =   0.0473373
        k(   13) = (   0.3109672  -0.3842955   0.0000000), wk =   0.0473373
        k(   14) = (  -0.2221195   0.5380137   0.0000000), wk =   0.0473373
        k(   15) = (  -0.1776956   0.4611546   0.0000000), wk =   0.0473373
        k(   16) = (  -0.1332717   0.3842955   0.0000000), wk =   0.0473373
        k(   17) = (  -0.0888478   0.3074364   0.0000000), wk =   0.0473373
        k(   18) = (  -0.0444239   0.2305773   0.0000000), wk =   0.0473373
        k(   19) = (   0.0000000   0.1537182   0.0000000), wk =   0.0236686
        k(   20) = (   0.1776956   0.0000000   0.0000000), wk =   0.0236686
        k(   21) = (   0.2221195  -0.0768591   0.0000000), wk =   0.0473373
        k(   22) = (   0.2665433  -0.1537182   0.0000000), wk =   0.0473373
        k(   23) = (   0.3109672  -0.2305773   0.0000000), wk =   0.0473373
        k(   24) = (   0.3553911  -0.3074364   0.0000000), wk =   0.0473373
        k(   25) = (  -0.1776956   0.6148728   0.0000000), wk =   0.0473373
        k(   26) = (  -0.1332717   0.5380137   0.0000000), wk =   0.0473373
        k(   27) = (  -0.0888478   0.4611546   0.0000000), wk =   0.0473373
        k(   28) = (  -0.0444239   0.3842955   0.0000000), wk =   0.0473373
        k(   29) = (   0.0000000   0.3074364   0.0000000), wk =   0.0236686
        k(   30) = (   0.2665433   0.0000000   0.0000000), wk =   0.0236686
        k(   31) = (   0.3109672  -0.0768591   0.0000000), wk =   0.0473373
        k(   32) = (   0.3553911  -0.1537182   0.0000000), wk =   0.0473373
        k(   33) = (   0.3998150  -0.2305773   0.0000000), wk =   0.0473373
        k(   34) = (  -0.1332717   0.6917319   0.0000000), wk =   0.0473373
        k(   35) = (  -0.0888478   0.6148728   0.0000000), wk =   0.0473373
        k(   36) = (  -0.0444239   0.5380137   0.0000000), wk =   0.0473373
        k(   37) = (   0.0000000   0.4611546   0.0000000), wk =   0.0236686
        k(   38) = (   0.3553911   0.0000000   0.0000000), wk =   0.0236686
        k(   39) = (   0.3998150  -0.0768591   0.0000000), wk =   0.0473373
        k(   40) = (   0.4442389  -0.1537182   0.0000000), wk =   0.0473373
        k(   41) = (  -0.0888478   0.7685911   0.0000000), wk =   0.0473373
        k(   42) = (  -0.0444239   0.6917319   0.0000000), wk =   0.0473373
        k(   43) = (   0.0000000   0.6148728   0.0000000), wk =   0.0236686
        k(   44) = (   0.4442389   0.0000000   0.0000000), wk =   0.0236686
        k(   45) = (   0.4886628  -0.0768591   0.0000000), wk =   0.0473373
        k(   46) = (  -0.0444239   0.8454502   0.0000000), wk =   0.0473373
        k(   47) = (   0.0000000   0.7685911   0.0000000), wk =   0.0236686
        k(   48) = (   0.5330867   0.0000000   0.0000000), wk =   0.0236686
        k(   49) = (   0.0000000   0.9223093   0.0000000), wk =   0.0236686

                       cryst. coord.
        k(    1) = (   0.0000000   0.0000000   0.0000000), wk =   0.0118343
        k(    2) = (  -0.0000000   0.0769231   0.0000000), wk =   0.0473373
        k(    3) = (  -0.0000000   0.1538462   0.0000000), wk =   0.0473373
        k(    4) = (  -0.0000000   0.2307692   0.0000000), wk =   0.0473373
        k(    5) = (  -0.0000000   0.3076923   0.0000000), wk =   0.0473373
        k(    6) = (  -0.0000000   0.3846154   0.0000000), wk =   0.0473373
        k(    7) = (  -0.0000000   0.4615385   0.0000000), wk =   0.0473373
        k(    8) = (   0.0769231   0.0769231   0.0000000), wk =   0.0236686
        k(    9) = (   0.0769231   0.1538462   0.0000000), wk =   0.0473373
        k(   10) = (   0.0769231   0.2307692   0.0000000), wk =   0.0473373
        k(   11) = (   0.0769231   0.3076923   0.0000000), wk =   0.0473373
        k(   12) = (   0.0769231   0.3846154   0.0000000), wk =   0.0473373
        k(   13) = (   0.0769231   0.4615385   0.0000000), wk =   0.0473373
        k(   14) = (   0.0769231  -0.4615385   0.0000000), wk =   0.0473373
        k(   15) = (   0.0769231  -0.3846154   0.0000000), wk =   0.0473373
        k(   16) = (   0.0769231  -0.3076923   0.0000000), wk =   0.0473373
        k(   17) = (   0.0769231  -0.2307692   0.0000000), wk =   0.0473373
        k(   18) = (   0.0769231  -0.1538462   0.0000000), wk =   0.0473373
        k(   19) = (   0.0769231  -0.0769231   0.0000000), wk =   0.0236686
        k(   20) = (   0.1538462   0.1538462   0.0000000), wk =   0.0236686
        k(   21) = (   0.1538462   0.2307692   0.0000000), wk =   0.0473373
        k(   22) = (   0.1538462   0.3076923   0.0000000), wk =   0.0473373
        k(   23) = (   0.1538462   0.3846154   0.0000000), wk =   0.0473373
        k(   24) = (   0.1538462   0.4615385   0.0000000), wk =   0.0473373
        k(   25) = (   0.1538462  -0.4615385   0.0000000), wk =   0.0473373
        k(   26) = (   0.1538462  -0.3846154   0.0000000), wk =   0.0473373
        k(   27) = (   0.1538462  -0.3076923   0.0000000), wk =   0.0473373
        k(   28) = (   0.1538462  -0.2307692   0.0000000), wk =   0.0473373
        k(   29) = (   0.1538462  -0.1538462   0.0000000), wk =   0.0236686
        k(   30) = (   0.2307692   0.2307692   0.0000000), wk =   0.0236686
        k(   31) = (   0.2307692   0.3076923   0.0000000), wk =   0.0473373
        k(   32) = (   0.2307692   0.3846154   0.0000000), wk =   0.0473373
        k(   33) = (   0.2307692   0.4615385   0.0000000), wk =   0.0473373
        k(   34) = (   0.2307692  -0.4615385   0.0000000), wk =   0.0473373
        k(   35) = (   0.2307692  -0.3846154   0.0000000), wk =   0.0473373
        k(   36) = (   0.2307692  -0.3076923   0.0000000), wk =   0.0473373
        k(   37) = (   0.2307692  -0.2307692   0.0000000), wk =   0.0236686
        k(   38) = (   0.3076923   0.3076923   0.0000000), wk =   0.0236686
        k(   39) = (   0.3076923   0.3846154   0.0000000), wk =   0.0473373
        k(   40) = (   0.3076923   0.4615385   0.0000000), wk =   0.0473373
        k(   41) = (   0.3076923  -0.4615385   0.0000000), wk =   0.0473373
        k(   42) = (   0.3076923  -0.3846154   0.0000000), wk =   0.0473373
        k(   43) = (   0.3076923  -0.3076923   0.0000000), wk =   0.0236686
        k(   44) = (   0.3846154   0.3846154   0.0000000), wk =   0.0236686
        k(   45) = (   0.3846154   0.4615385   0.0000000), wk =   0.0473373
        k(   46) = (   0.3846154  -0.4615385   0.0000000), wk =   0.0473373
        k(   47) = (   0.3846154  -0.3846154   0.0000000), wk =   0.0236686
        k(   48) = (   0.4615385   0.4615385   0.0000000), wk =   0.0236686
        k(   49) = (   0.4615385  -0.4615385   0.0000000), wk =   0.0236686

     Dense  grid:    80759 G-vectors     FFT dimensions: (  27,  27, 240)

     Dynamical RAM for                 wfc:       0.46 MB

     Dynamical RAM for     wfc (w. buffer):      23.12 MB

     Dynamical RAM for           str. fact:       0.25 MB

     Dynamical RAM for           local pot:       0.00 MB

     Dynamical RAM for          nlocal pot:       0.80 MB

     Dynamical RAM for                qrad:       2.49 MB

     Dynamical RAM for          rho,v,vnew:       0.77 MB

     Dynamical RAM for               rhoin:       0.26 MB

     Dynamical RAM for            rho*nmix:       1.97 MB

     Dynamical RAM for           G-vectors:       0.52 MB

     Dynamical RAM for          h,s,v(r/c):       0.16 MB

     Dynamical RAM for          <psi|beta>:       0.02 MB

     Dynamical RAM for                 psi:       0.92 MB

     Dynamical RAM for                hpsi:       0.92 MB

     Dynamical RAM for                spsi:       0.92 MB

     Dynamical RAM for      wfcinit/wfcrot:       0.95 MB

     Dynamical RAM for           addusdens:      23.15 MB

     Estimated static dynamical RAM per process >      29.24 MB

     Estimated max dynamical RAM per process >      54.36 MB

     Estimated total dynamical RAM >     543.63 MB

     Check: negative core charge=   -0.000003

     Initial potential from superposition of free atoms

     starting charge      17.9954, renormalised to      18.0000

     negative rho (up, down):  1.352E-03 0.000E+00


     %%%%%%%%%%%%%%%%%%%%%%%%%%%%%%%%%%%%%%%%%%%%%%%%%%%%%%%%%%%%%%%%%%%%%%%%
     %                                                                      %
     % You are using vdW-DF, which was implemented by the Thonhauser group. %
     % Please cite the following two papers that made this development      %
     % possible and the two reviews that describe the various versions:     %
     %                                                                      %
     %   T. Thonhauser et al., PRL 115, 136402 (2015).                      %
     %   T. Thonhauser et al., PRB 76, 125112 (2007).                       %
     %   K. Berland et al., Rep. Prog. Phys. 78, 066501 (2015).             %
     %   D.C. Langreth et al., J. Phys.: Condens. Matter 21, 084203 (2009). %
     %                                                                      %
     % If you are calculating stress with vdW-DF, please also cite:         %
     %                                                                      %
     %   R. Sabatini et al., J. Phys.: Condens. Matter 24, 424209 (2012).   %
     %                                                                      %
     %%%%%%%%%%%%%%%%%%%%%%%%%%%%%%%%%%%%%%%%%%%%%%%%%%%%%%%%%%%%%%%%%%%%%%%%

     %%%%%%%%%%%%%%%%%%%%%%%%%%%%%%%%%%%%%%%%%%%%%%%%%%%%%%%%%%%%%%%%%%%%%%%%
     %                                                                      %
     %  vdW-DF NEWS:                                                        %
     %                                                                      %
     %  * vdW-DF3 is now available. DOI: 10.1021/acs.jctc.0c00471           %
     %    use with input_dft = 'vdW-DF3-opt1' or 'vdW-DF3-opt2'             %
     %                                                                      %
     %  * Unscreened and range-separated vdW-DF hybrid functionals          %
     %    DOI: 10.1063/1.4986522 and 10.1088/1361-648X/ac2ad2               %
     %    use with input_dft = 'vdW-DF-cx0' (etc) and 'vdW-DF-ahcx'         %
     %                                                                      %
     %%%%%%%%%%%%%%%%%%%%%%%%%%%%%%%%%%%%%%%%%%%%%%%%%%%%%%%%%%%%%%%%%%%%%%%%


     Carrying out vdW-DF run using the following parameters:
     Nqs    =  20  Npoints =  1024  r_max =  100.000
     q_mesh =  0.00001000  0.04494208  0.09755937  0.15916263
               0.23128650  0.31572767  0.41458969  0.53033537
               0.66584808  0.82450364  1.01025438  1.22772762
               1.48234092  1.78043706  2.12944203  2.53805004
               3.01644009  3.57652955  4.23227104  5.00000000


     -----------------------------------------------
     Non-local corr. energy    =       0.21856903 Ry
     -----------------------------------------------

     Starting wfcs are   16 randomized atomic wfcs +   14 random wfcs
     Checking if some PAW data can be deallocated... 
       PAW data deallocated on    5 nodes for type:  1
       PAW data deallocated on    5 nodes for type:  2

     total cpu time spent up to now is        4.4 secs

     Self-consistent Calculation

     iteration #  1     ecut=    60.00 Ry     beta= 0.50
     Davidson diagonalization with overlap

---- Real-time Memory Report at c_bands before calling an iterative solver
           128 MiB given to the printing process from OS
             0 MiB allocation reported by mallinfo(arena+hblkhd)
         43307 MiB available memory on the node where the printing process lives
------------------
     ethr =  1.00E-02,  avg # of iterations =  8.2

     negative rho (up, down):  1.426E-03 0.000E+00


     -----------------------------------------------
     Non-local corr. energy    =       0.23865991 Ry
     -----------------------------------------------


     total cpu time spent up to now is        9.7 secs

     total energy              =    -161.92032546 Ry
     estimated scf accuracy    <       0.95023900 Ry

     iteration #  2     ecut=    60.00 Ry     beta= 0.50
     Davidson diagonalization with overlap

---- Real-time Memory Report at c_bands before calling an iterative solver
           167 MiB given to the printing process from OS
             0 MiB allocation reported by mallinfo(arena+hblkhd)
         42909 MiB available memory on the node where the printing process lives
------------------
     ethr =  5.28E-03,  avg # of iterations =  2.0

     negative rho (up, down):  1.253E-03 0.000E+00


     -----------------------------------------------
     Non-local corr. energy    =       0.23519790 Ry
     -----------------------------------------------


     total cpu time spent up to now is       12.0 secs

     total energy              =    -162.17398657 Ry
     estimated scf accuracy    <       0.32977408 Ry

     iteration #  3     ecut=    60.00 Ry     beta= 0.50
     Davidson diagonalization with overlap

---- Real-time Memory Report at c_bands before calling an iterative solver
           172 MiB given to the printing process from OS
             0 MiB allocation reported by mallinfo(arena+hblkhd)
         42870 MiB available memory on the node where the printing process lives
------------------
     ethr =  1.83E-03,  avg # of iterations =  2.3

     negative rho (up, down):  1.334E-03 0.000E+00


     -----------------------------------------------
     Non-local corr. energy    =       0.23728158 Ry
     -----------------------------------------------


     total cpu time spent up to now is       14.2 secs

     total energy              =    -162.26188352 Ry
     estimated scf accuracy    <       0.01558857 Ry

     iteration #  4     ecut=    60.00 Ry     beta= 0.50
     Davidson diagonalization with overlap

---- Real-time Memory Report at c_bands before calling an iterative solver
           172 MiB given to the printing process from OS
             0 MiB allocation reported by mallinfo(arena+hblkhd)
         42867 MiB available memory on the node where the printing process lives
------------------
     ethr =  8.66E-05,  avg # of iterations =  9.5

     negative rho (up, down):  1.853E-03 0.000E+00


     -----------------------------------------------
     Non-local corr. energy    =       0.24075675 Ry
     -----------------------------------------------


     total cpu time spent up to now is       18.2 secs

     total energy              =    -162.27258957 Ry
     estimated scf accuracy    <       0.00451513 Ry

     iteration #  5     ecut=    60.00 Ry     beta= 0.50
     Davidson diagonalization with overlap

---- Real-time Memory Report at c_bands before calling an iterative solver
           172 MiB given to the printing process from OS
             0 MiB allocation reported by mallinfo(arena+hblkhd)
         42866 MiB available memory on the node where the printing process lives
------------------
     ethr =  2.51E-05,  avg # of iterations =  4.4

     negative rho (up, down):  1.775E-03 0.000E+00


     -----------------------------------------------
     Non-local corr. energy    =       0.24061015 Ry
     -----------------------------------------------


     total cpu time spent up to now is       20.8 secs

     total energy              =    -162.27307960 Ry
     estimated scf accuracy    <       0.00085254 Ry

     iteration #  6     ecut=    60.00 Ry     beta= 0.50
     Davidson diagonalization with overlap

---- Real-time Memory Report at c_bands before calling an iterative solver
           172 MiB given to the printing process from OS
             0 MiB allocation reported by mallinfo(arena+hblkhd)
         42863 MiB available memory on the node where the printing process lives
------------------
     ethr =  4.74E-06,  avg # of iterations =  5.2

     negative rho (up, down):  1.772E-03 0.000E+00


     -----------------------------------------------
     Non-local corr. energy    =       0.24056586 Ry
     -----------------------------------------------


     total cpu time spent up to now is       23.4 secs

     total energy              =    -162.27321838 Ry
     estimated scf accuracy    <       0.00004818 Ry

     iteration #  7     ecut=    60.00 Ry     beta= 0.50
     Davidson diagonalization with overlap

---- Real-time Memory Report at c_bands before calling an iterative solver
           173 MiB given to the printing process from OS
             0 MiB allocation reported by mallinfo(arena+hblkhd)
         42860 MiB available memory on the node where the printing process lives
------------------
     ethr =  2.68E-07,  avg # of iterations =  4.8

     negative rho (up, down):  1.777E-03 0.000E+00


     -----------------------------------------------
     Non-local corr. energy    =       0.24047533 Ry
     -----------------------------------------------


     total cpu time spent up to now is       26.1 secs

     total energy              =    -162.27324963 Ry
     estimated scf accuracy    <       0.00001128 Ry

     iteration #  8     ecut=    60.00 Ry     beta= 0.50
     Davidson diagonalization with overlap

---- Real-time Memory Report at c_bands before calling an iterative solver
           173 MiB given to the printing process from OS
             0 MiB allocation reported by mallinfo(arena+hblkhd)
         42857 MiB available memory on the node where the printing process lives
------------------
     ethr =  6.27E-08,  avg # of iterations =  3.5

     negative rho (up, down):  1.791E-03 0.000E+00


     -----------------------------------------------
     Non-local corr. energy    =       0.24050533 Ry
     -----------------------------------------------


     total cpu time spent up to now is       28.8 secs

     total energy              =    -162.27325352 Ry
     estimated scf accuracy    <       0.00000702 Ry

     iteration #  9     ecut=    60.00 Ry     beta= 0.50
     Davidson diagonalization with overlap

---- Real-time Memory Report at c_bands before calling an iterative solver
           173 MiB given to the printing process from OS
             0 MiB allocation reported by mallinfo(arena+hblkhd)
         42856 MiB available memory on the node where the printing process lives
------------------
     ethr =  3.90E-08,  avg # of iterations =  1.0

     negative rho (up, down):  1.791E-03 0.000E+00


     -----------------------------------------------
     Non-local corr. energy    =       0.24051746 Ry
     -----------------------------------------------


     total cpu time spent up to now is       30.8 secs

     total energy              =    -162.27325385 Ry
     estimated scf accuracy    <       0.00000082 Ry

     iteration # 10     ecut=    60.00 Ry     beta= 0.50
     Davidson diagonalization with overlap

---- Real-time Memory Report at c_bands before calling an iterative solver
           173 MiB given to the printing process from OS
             0 MiB allocation reported by mallinfo(arena+hblkhd)
         42854 MiB available memory on the node where the printing process lives
------------------
     ethr =  4.53E-09,  avg # of iterations =  3.0

     negative rho (up, down):  1.792E-03 0.000E+00


     -----------------------------------------------
     Non-local corr. energy    =       0.24052270 Ry
     -----------------------------------------------


     total cpu time spent up to now is       33.3 secs

     total energy              =    -162.27325407 Ry
     estimated scf accuracy    <       0.00000007 Ry

     iteration # 11     ecut=    60.00 Ry     beta= 0.50
     Davidson diagonalization with overlap

---- Real-time Memory Report at c_bands before calling an iterative solver
           173 MiB given to the printing process from OS
             0 MiB allocation reported by mallinfo(arena+hblkhd)
         42850 MiB available memory on the node where the printing process lives
------------------
     ethr =  4.16E-10,  avg # of iterations =  4.3

     negative rho (up, down):  1.792E-03 0.000E+00


     -----------------------------------------------
     Non-local corr. energy    =       0.24052253 Ry
     -----------------------------------------------


     total cpu time spent up to now is       36.1 secs

     End of self-consistent calculation

          k = 0.0000 0.0000 0.0000 (  9961 PWs)   bands (ev):

   -22.5325 -22.4651  -9.4754  -7.4119  -6.5955  -6.5874  -6.5742  -6.5662
    -4.4158  -0.2909   1.6599   2.4341   2.6960   3.2186   3.4712   4.4270
     5.0731   6.4420   6.5267   8.1205   8.4962   8.5165   9.0006   9.8600
     9.8814  11.0002  11.0045  12.0993  12.1262  12.8894

     occupation numbers 
     1.0000   1.0000   1.0000   1.0000   1.0000   1.0000   1.0000   1.0000
     1.0000   0.0000   0.0000   0.0000   0.0000   0.0000   0.0000   0.0000
     0.0000   0.0000   0.0000   0.0000   0.0000   0.0000   0.0000   0.0000
     0.0000   0.0000   0.0000   0.0000   0.0000   0.0000

          k = 0.0444-0.0769 0.0000 (  9992 PWs)   bands (ev):

   -22.4862 -22.4206  -9.4000  -7.3604  -6.8718  -6.8417  -6.6307  -6.6084
    -4.2699  -0.0069   1.8058   2.5557   2.8426   3.3860   3.5906   4.5660
     5.1615   6.5298   6.5800   7.5062   8.2539   8.4497   9.1639   9.3839
    10.0418  11.0662  11.1356  11.8041  12.0783  13.2414

     occupation numbers 
     1.0000   1.0000   1.0000   1.0000   1.0000   1.0000   1.0000   1.0000
     1.0000   0.0000   0.0000   0.0000   0.0000   0.0000   0.0000   0.0000
     0.0000   0.0000   0.0000   0.0000   0.0000   0.0000   0.0000   0.0000
     0.0000   0.0000   0.0000   0.0000   0.0000   0.0000

          k = 0.0888-0.1537 0.0000 ( 10050 PWs)   bands (ev):

   -22.3550 -22.2943  -9.2099  -7.5507  -7.4726  -7.1627  -6.7428  -6.7175
    -3.9738   0.6903   2.1899   2.8985   3.2609   3.8351   3.9382   4.9119
     5.4038   5.8163   6.7457   7.0083   8.2067   8.4053   8.7371   9.0919
    10.2030  10.4879  11.5083  12.2795  12.3075  13.5453

     occupation numbers 
     1.0000   1.0000   1.0000   1.0000   1.0000   1.0000   1.0000   1.0000
     1.0000   0.0000   0.0000   0.0000   0.0000   0.0000   0.0000   0.0000
     0.0000   0.0000   0.0000   0.0000   0.0000   0.0000   0.0000   0.0000
     0.0000   0.0000   0.0000   0.0000   0.0000   0.0000

          k = 0.1333-0.2306 0.0000 ( 10090 PWs)   bands (ev):

   -22.1615 -22.1084  -9.1277  -8.3487  -7.9219  -6.9359  -6.8946  -6.8655
    -3.6640   1.5270   2.5674   3.3813   3.6792   4.0580   4.4924   4.8722
     5.7413   5.7872   6.9270   7.3429   7.7947   7.9265   8.4916   9.3500
    10.4328  11.0492  11.9749  12.1834  12.8936  12.9838

     occupation numbers 
     1.0000   1.0000   1.0000   1.0000   1.0000   1.0000   1.0000   1.0000
     1.0000   0.0000   0.0000   0.0000   0.0000   0.0000   0.0000   0.0000
     0.0000   0.0000   0.0000   0.0000   0.0000   0.0000   0.0000   0.0000
     0.0000   0.0000   0.0000   0.0000   0.0000   0.0000

          k = 0.1777-0.3074 0.0000 ( 10122 PWs)   bands (ev):

   -21.9441 -21.8996  -9.5115  -9.1077  -7.7399  -7.0487  -7.0160  -6.6637
    -3.3725   1.6770   2.2343   3.9059   3.9273   4.9147   5.2359   5.5833
     6.0539   6.2959   7.0813   7.3601   7.4229   8.2881   8.8954  10.1745
    10.7697  11.3032  11.4699  11.7566  12.9211  13.1784

     occupation numbers 
     1.0000   1.0000   1.0000   1.0000   1.0000   1.0000   1.0000   1.0000
     1.0000   0.0000   0.0000   0.0000   0.0000   0.0000   0.0000   0.0000
     0.0000   0.0000   0.0000   0.0000   0.0000   0.0000   0.0000   0.0000
     0.0000   0.0000   0.0000   0.0000   0.0000   0.0000

          k = 0.2221-0.3843 0.0000 ( 10136 PWs)   bands (ev):

   -21.7529 -21.7164  -9.9926  -9.6893  -7.2796  -7.1714  -7.1360  -6.4204
    -3.1013   0.3686   2.5541   4.5153   4.7712   5.6844   5.8654   6.1497
     6.6116   7.0229   7.0298   7.6740   8.1745   9.0055   9.4762  10.2803
    10.3172  11.0104  11.2878  11.6275  11.6305  11.7502

     occupation numbers 
     1.0000   1.0000   1.0000   1.0000   1.0000   1.0000   1.0000   1.0000
     1.0000   0.0000   0.0000   0.0000   0.0000   0.0000   0.0000   0.0000
     0.0000   0.0000   0.0000   0.0000   0.0000   0.0000   0.0000   0.0000
     0.0000   0.0000   0.0000   0.0000   0.0000   0.0000

          k = 0.2665-0.4612 0.0000 ( 10132 PWs)   bands (ev):

   -21.6399 -21.6083 -10.2773 -10.0046  -7.2389  -7.2020  -6.9314  -6.2752
    -2.8817  -0.5009   2.5921   4.9721   5.1369   6.1533   6.2286   6.8433
     7.4937   7.6196   7.8340   8.3498   8.6164   9.2347   9.2848   9.5906
     9.8477  10.2281  10.2301  10.9196  11.0785  11.6483

     occupation numbers 
     1.0000   1.0000   1.0000   1.0000   1.0000   1.0000   1.0000   1.0000
     1.0000   0.0000   0.0000   0.0000   0.0000   0.0000   0.0000   0.0000
     0.0000   0.0000   0.0000   0.0000   0.0000   0.0000   0.0000   0.0000
     0.0000   0.0000   0.0000   0.0000   0.0000   0.0000

          k = 0.0888 0.0000 0.0000 (  9996 PWs)   bands (ev):

   -22.4861 -22.4205  -9.3997  -7.3603  -6.8660  -6.8359  -6.6371  -6.6147
    -4.2696  -0.0069   1.8059   2.5559   2.8428   3.3860   3.5908   4.5662
     5.1617   6.5306   6.5801   7.5179   8.2539   8.4339   9.1647   9.3971
    10.0260  11.0739  11.1359  11.8149  12.0590  13.2428

     occupation numbers 
     1.0000   1.0000   1.0000   1.0000   1.0000   1.0000   1.0000   1.0000
     1.0000   0.0000   0.0000   0.0000   0.0000   0.0000   0.0000   0.0000
     0.0000   0.0000   0.0000   0.0000   0.0000   0.0000   0.0000   0.0000
     0.0000   0.0000   0.0000   0.0000   0.0000   0.0000

          k = 0.1333-0.0769 0.0000 ( 10017 PWs)   bands (ev):

   -22.3972 -22.3349  -9.2648  -7.3678  -7.2883  -7.1793  -6.7264  -6.7006
    -4.0558   0.4822   2.0740   2.7889   3.1264   3.7023   3.8245   4.8220
     5.3275   6.2151   6.6961   6.9375   8.0127   8.4972   8.7381   9.3741
    10.3437  10.6653  11.3886  11.6241  12.2160  13.7360

     occupation numbers 
     1.0000   1.0000   1.0000   1.0000   1.0000   1.0000   1.0000   1.0000
     1.0000   0.0000   0.0000   0.0000   0.0000   0.0000   0.0000   0.0000
     0.0000   0.0000   0.0000   0.0000   0.0000   0.0000   0.0000   0.0000
     0.0000   0.0000   0.0000   0.0000   0.0000   0.0000

          k = 0.1777-0.1537 0.0000 ( 10066 PWs)   bands (ev):

   -22.2346 -22.1785  -9.1042  -8.0243  -7.7918  -7.0274  -6.8936  -6.8597
    -3.7661   1.2533   2.5266   3.2046   3.6526   4.0972   4.2744   4.7831
     5.6129   5.6254   6.9248   6.9562   7.6169   7.9683   9.0639   9.3294
    10.2391  10.8424  11.8564  11.8588  12.6166  13.4488

     occupation numbers 
     1.0000   1.0000   1.0000   1.0000   1.0000   1.0000   1.0000   1.0000
     1.0000   0.0000   0.0000   0.0000   0.0000   0.0000   0.0000   0.0000
     0.0000   0.0000   0.0000   0.0000   0.0000   0.0000   0.0000   0.0000
     0.0000   0.0000   0.0000   0.0000   0.0000   0.0000

          k = 0.2221-0.2306 0.0000 ( 10087 PWs)   bands (ev):

   -22.0283 -21.9804  -9.2770  -8.7669  -7.8584  -7.0887  -7.0527  -6.7681
    -3.4728   2.0595   2.4240   3.6072   3.6956   4.5149   4.9307   5.2918
     5.9944   6.0706   6.5737   7.0041   7.9795   8.0401   8.7487   9.8238
    10.7283  11.2433  11.8066  12.1291  12.7693  13.0632

     occupation numbers 
     1.0000   1.0000   1.0000   1.0000   1.0000   1.0000   1.0000   1.0000
     1.0000   0.0000   0.0000   0.0000   0.0000   0.0000   0.0000   0.0000
     0.0000   0.0000   0.0000   0.0000   0.0000   0.0000   0.0000   0.0000
     0.0000   0.0000   0.0000   0.0000   0.0000   0.0000

          k = 0.2665-0.3074 0.0000 ( 10127 PWs)   bands (ev):

   -21.8226 -21.7832  -9.7405  -9.4062  -7.4804  -7.2523  -7.2228  -6.5094
    -3.1900   1.0897   2.6053   4.2589   4.3338   5.5502   5.6356   5.7115
     6.2456   6.3158   7.1455   7.3546   7.9996   8.6776   9.3808  10.4349
    10.9335  10.9920  11.3696  11.9259  12.4447  12.5164

     occupation numbers 
     1.0000   1.0000   1.0000   1.0000   1.0000   1.0000   1.0000   1.0000
     1.0000   0.0000   0.0000   0.0000   0.0000   0.0000   0.0000   0.0000
     0.0000   0.0000   0.0000   0.0000   0.0000   0.0000   0.0000   0.0000
     0.0000   0.0000   0.0000   0.0000   0.0000   0.0000

          k = 0.3110-0.3843 0.0000 ( 10108 PWs)   bands (ev):

   -21.6691 -21.6361 -10.1149  -9.8360  -7.4059  -7.3401  -7.0193  -6.3135
    -2.9224  -0.0587   2.7607   4.8921   5.1223   5.4287   6.1055   6.5927
     6.9614   7.2009   7.6759   8.0765   8.6699   9.3025   9.7391  10.0119
    10.3761  10.6470  10.6591  11.1413  11.4171  11.5333

     occupation numbers 
     1.0000   1.0000   1.0000   1.0000   1.0000   1.0000   1.0000   1.0000
     1.0000   0.0000   0.0000   0.0000   0.0000   0.0000   0.0000   0.0000
     0.0000   0.0000   0.0000   0.0000   0.0000   0.0000   0.0000   0.0000
     0.0000   0.0000   0.0000   0.0000   0.0000   0.0000

          k =-0.2221 0.5380 0.0000 ( 10118 PWs)   bands (ev):

   -21.6120 -21.5815 -10.2523  -9.9873  -7.4453  -7.3818  -6.8377  -6.2401
    -2.7777  -0.5423   2.7684   5.1099   5.1591   5.8823   6.3222   6.5753
     7.8866   7.9648   8.4778   8.6366   8.6845   9.1037   9.1272   9.6197
     9.7497  10.2722  10.2740  10.8858  11.1521  11.4110

     occupation numbers 
     1.0000   1.0000   1.0000   1.0000   1.0000   1.0000   1.0000   1.0000
     1.0000   0.0000   0.0000   0.0000   0.0000   0.0000   0.0000   0.0000
     0.0000   0.0000   0.0000   0.0000   0.0000   0.0000   0.0000   0.0000
     0.0000   0.0000   0.0000   0.0000   0.0000   0.0000

          k =-0.1777 0.4612 0.0000 ( 10108 PWs)   bands (ev):

   -21.6693 -21.6364 -10.1143  -9.8354  -7.4062  -7.3404  -7.0199  -6.3138
    -2.9232  -0.0567   2.7605   4.8914   5.1215   5.4269   6.1063   6.5912
     6.9593   7.1997   7.6753   8.0757   8.6702   9.3017   9.7408  10.0120
    10.3785  10.6491  10.6603  11.1425  11.4191  11.5325

     occupation numbers 
     1.0000   1.0000   1.0000   1.0000   1.0000   1.0000   1.0000   1.0000
     1.0000   0.0000   0.0000   0.0000   0.0000   0.0000   0.0000   0.0000
     0.0000   0.0000   0.0000   0.0000   0.0000   0.0000   0.0000   0.0000
     0.0000   0.0000   0.0000   0.0000   0.0000   0.0000

          k =-0.1333 0.3843 0.0000 ( 10127 PWs)   bands (ev):

   -21.8231 -21.7836  -9.7399  -9.4053  -7.4810  -7.2529  -7.2231  -6.5100
    -3.1909   1.0925   2.6049   4.2581   4.3330   5.5481   5.6313   5.7106
     6.2448   6.3156   7.1447   7.3551   8.0012   8.6776   9.3815  10.4338
    10.9362  10.9917  11.3697  11.9274  12.4476  12.5209

     occupation numbers 
     1.0000   1.0000   1.0000   1.0000   1.0000   1.0000   1.0000   1.0000
     1.0000   0.0000   0.0000   0.0000   0.0000   0.0000   0.0000   0.0000
     0.0000   0.0000   0.0000   0.0000   0.0000   0.0000   0.0000   0.0000
     0.0000   0.0000   0.0000   0.0000   0.0000   0.0000

          k =-0.0888 0.3074 0.0000 ( 10083 PWs)   bands (ev):

   -22.0289 -21.9809  -9.2771  -8.7664  -7.8587  -7.0884  -7.0522  -6.7688
    -3.4735   2.0593   2.4260   3.6069   3.6946   4.5135   4.9294   5.2915
     5.9938   6.0652   6.5713   7.0041   7.9808   8.0416   8.7522   9.8234
    10.7284  11.2426  11.8081  12.1301  12.7703  13.0656

     occupation numbers 
     1.0000   1.0000   1.0000   1.0000   1.0000   1.0000   1.0000   1.0000
     1.0000   0.0000   0.0000   0.0000   0.0000   0.0000   0.0000   0.0000
     0.0000   0.0000   0.0000   0.0000   0.0000   0.0000   0.0000   0.0000
     0.0000   0.0000   0.0000   0.0000   0.0000   0.0000

          k =-0.0444 0.2306 0.0000 ( 10062 PWs)   bands (ev):

   -22.2350 -22.1790  -9.1051  -8.0254  -7.7926  -7.0277  -6.8915  -6.8577
    -3.7667   1.2533   2.5262   3.2037   3.6518   4.0972   4.2734   4.7831
     5.6128   5.6245   6.9240   6.9485   7.6169   7.9677   9.0641   9.3371
    10.2397  10.8462  11.8533  11.8580  12.6206  13.4529

     occupation numbers 
     1.0000   1.0000   1.0000   1.0000   1.0000   1.0000   1.0000   1.0000
     1.0000   0.0000   0.0000   0.0000   0.0000   0.0000   0.0000   0.0000
     0.0000   0.0000   0.0000   0.0000   0.0000   0.0000   0.0000   0.0000
     0.0000   0.0000   0.0000   0.0000   0.0000   0.0000

          k = 0.0000 0.1537 0.0000 ( 10013 PWs)   bands (ev):

   -22.3975 -22.3352  -9.2655  -7.3707  -7.2921  -7.1808  -6.7212  -6.6955
    -4.0563   0.4822   2.0736   2.7883   3.1258   3.7022   3.8239   4.8215
     5.3269   6.2105   6.6957   6.9354   8.0147   8.4962   8.7317   9.3775
    10.3556  10.6660  11.3879  11.6307  12.2117  13.7344

     occupation numbers 
     1.0000   1.0000   1.0000   1.0000   1.0000   1.0000   1.0000   1.0000
     1.0000   0.0000   0.0000   0.0000   0.0000   0.0000   0.0000   0.0000
     0.0000   0.0000   0.0000   0.0000   0.0000   0.0000   0.0000   0.0000
     0.0000   0.0000   0.0000   0.0000   0.0000   0.0000

          k = 0.1777 0.0000 0.0000 ( 10046 PWs)   bands (ev):

   -22.3545 -22.2939  -9.2088  -7.5456  -7.4676  -7.1619  -6.7499  -6.7245
    -3.9731   0.6903   2.1904   2.8992   3.2616   3.8351   3.9391   4.9131
     5.4047   5.8266   6.7460   7.0092   8.1889   8.4091   8.7431   9.0951
    10.2095  10.4729  11.5093  12.2642  12.3105  13.5419

     occupation numbers 
     1.0000   1.0000   1.0000   1.0000   1.0000   1.0000   1.0000   1.0000
     1.0000   0.0000   0.0000   0.0000   0.0000   0.0000   0.0000   0.0000
     0.0000   0.0000   0.0000   0.0000   0.0000   0.0000   0.0000   0.0000
     0.0000   0.0000   0.0000   0.0000   0.0000   0.0000

          k = 0.2221-0.0769 0.0000 ( 10068 PWs)   bands (ev):

   -22.2342 -22.1782  -9.1031  -8.0214  -7.7894  -7.0271  -6.8979  -6.8639
    -3.7655   1.2531   2.5271   3.2053   3.6531   4.0979   4.2751   4.7876
     5.6153   5.6261   6.9245   6.9498   7.6137   7.9720   9.0655   9.3307
    10.2418  10.8350  11.8468  11.8592  12.6210  13.4586

     occupation numbers 
     1.0000   1.0000   1.0000   1.0000   1.0000   1.0000   1.0000   1.0000
     1.0000   0.0000   0.0000   0.0000   0.0000   0.0000   0.0000   0.0000
     0.0000   0.0000   0.0000   0.0000   0.0000   0.0000   0.0000   0.0000
     0.0000   0.0000   0.0000   0.0000   0.0000   0.0000

          k = 0.2665-0.1537 0.0000 ( 10076 PWs)   bands (ev):

   -22.0582 -22.0091  -9.1784  -8.5933  -7.8568  -7.1748  -7.1313  -6.8042
    -3.5026   2.0166   2.9614   3.3926   3.6254   4.3589   4.8270   5.1043
     5.8989   5.9941   6.2808   7.0670   7.7902   8.1255   8.9644   9.6801
    10.5663  11.1328  12.1933  12.2527  12.5317  12.9472

     occupation numbers 
     1.0000   1.0000   1.0000   1.0000   1.0000   1.0000   1.0000   1.0000
     1.0000   0.0000   0.0000   0.0000   0.0000   0.0000   0.0000   0.0000
     0.0000   0.0000   0.0000   0.0000   0.0000   0.0000   0.0000   0.0000
     0.0000   0.0000   0.0000   0.0000   0.0000   0.0000

          k = 0.3110-0.2306 0.0000 ( 10125 PWs)   bands (ev):

   -21.8621 -21.8208  -9.5067  -9.1353  -7.5664  -7.4641  -7.4258  -6.5593
    -3.2206   1.9224   2.7345   3.7480   4.1152   5.1071   5.3733   5.6045
     6.0326   6.3676   7.1193   7.1285   8.1781   8.4122   9.0550  10.3958
    11.0295  11.1721  11.2755  12.6868  13.0492  13.3371

     occupation numbers 
     1.0000   1.0000   1.0000   1.0000   1.0000   1.0000   1.0000   1.0000
     1.0000   0.0000   0.0000   0.0000   0.0000   0.0000   0.0000   0.0000
     0.0000   0.0000   0.0000   0.0000   0.0000   0.0000   0.0000   0.0000
     0.0000   0.0000   0.0000   0.0000   0.0000   0.0000

          k = 0.3554-0.3074 0.0000 ( 10138 PWs)   bands (ev):

   -21.6913 -21.6571  -9.8442  -9.5566  -7.7628  -7.6698  -7.0951  -6.3432
    -2.9189   0.6446   3.1042   4.1263   4.8132   5.2430   6.1677   6.4474
     6.8713   6.8840   7.5746   7.8435   8.4338   9.1660   9.9777  10.1306
    10.7995  11.0261  11.5674  11.7934  11.9433  12.2813

     occupation numbers 
     1.0000   1.0000   1.0000   1.0000   1.0000   1.0000   1.0000   1.0000
     1.0000   0.0000   0.0000   0.0000   0.0000   0.0000   0.0000   0.0000
     0.0000   0.0000   0.0000   0.0000   0.0000   0.0000   0.0000   0.0000
     0.0000   0.0000   0.0000   0.0000   0.0000   0.0000

          k =-0.1777 0.6149 0.0000 ( 10110 PWs)   bands (ev):

   -21.5913 -21.5614 -10.0427  -9.7873  -7.9090  -7.8055  -6.7898  -6.2158
    -2.6404  -0.2331   3.1931   4.1341   5.4409   5.7622   6.2997   6.8262
     7.8584   7.9046   8.3716   8.5464   9.3228   9.3332   9.7083   9.9308
    10.0287  10.3918  10.8578  11.0598  11.1784  11.4755

     occupation numbers 
     1.0000   1.0000   1.0000   1.0000   1.0000   1.0000   1.0000   1.0000
     1.0000   0.0000   0.0000   0.0000   0.0000   0.0000   0.0000   0.0000
     0.0000   0.0000   0.0000   0.0000   0.0000   0.0000   0.0000   0.0000
     0.0000   0.0000   0.0000   0.0000   0.0000   0.0000

          k =-0.1333 0.5380 0.0000 ( 10116 PWs)   bands (ev):

   -21.5916 -21.5617 -10.0422  -9.7867  -7.9092  -7.8057  -6.7904  -6.2161
    -2.6416  -0.2308   3.1929   4.1332   5.4396   5.7597   6.3019   6.8279
     7.8563   7.9003   8.3686   8.5438   9.3217   9.3341   9.7107   9.9339
    10.0329  10.3927  10.8576  11.0638  11.1793  11.4739

     occupation numbers 
     1.0000   1.0000   1.0000   1.0000   1.0000   1.0000   1.0000   1.0000
     1.0000   0.0000   0.0000   0.0000   0.0000   0.0000   0.0000   0.0000
     0.0000   0.0000   0.0000   0.0000   0.0000   0.0000   0.0000   0.0000
     0.0000   0.0000   0.0000   0.0000   0.0000   0.0000

          k =-0.0888 0.4612 0.0000 ( 10140 PWs)   bands (ev):

   -21.6920 -21.6579  -9.8433  -9.5554  -7.7630  -7.6699  -7.0965  -6.3440
    -2.9209   0.6497   3.1036   4.1238   4.8115   5.2386   6.1692   6.4435
     6.8692   6.8818   7.5766   7.8423   8.4345   9.1641   9.9773  10.1292
    10.7986  11.0326  11.5689  11.7997  11.9466  12.2812

     occupation numbers 
     1.0000   1.0000   1.0000   1.0000   1.0000   1.0000   1.0000   1.0000
     1.0000   0.0000   0.0000   0.0000   0.0000   0.0000   0.0000   0.0000
     0.0000   0.0000   0.0000   0.0000   0.0000   0.0000   0.0000   0.0000
     0.0000   0.0000   0.0000   0.0000   0.0000   0.0000

          k =-0.0444 0.3843 0.0000 ( 10120 PWs)   bands (ev):

   -21.8630 -21.8218  -9.5065  -9.1346  -7.5663  -7.4647  -7.4248  -6.5604
    -3.2224   1.9278   2.7341   3.7455   4.1133   5.1024   5.3691   5.6019
     6.0302   6.3679   7.1197   7.1265   8.1858   8.4114   9.0548  10.3933
    11.0312  11.1720  11.2740  12.6895  13.0504  13.3371

     occupation numbers 
     1.0000   1.0000   1.0000   1.0000   1.0000   1.0000   1.0000   1.0000
     1.0000   0.0000   0.0000   0.0000   0.0000   0.0000   0.0000   0.0000
     0.0000   0.0000   0.0000   0.0000   0.0000   0.0000   0.0000   0.0000
     0.0000   0.0000   0.0000   0.0000   0.0000   0.0000

          k = 0.0000 0.3074 0.0000 ( 10083 PWs)   bands (ev):

   -22.0592 -22.0100  -9.1800  -8.5945  -7.8581  -7.1715  -7.1278  -6.8053
    -3.5041   2.0170   2.9622   3.3923   3.6233   4.3564   4.8246   5.1030
     5.8936   5.9928   6.2802   7.0669   7.7899   8.1253   8.9718   9.6789
    10.5655  11.1356  12.1939  12.2540  12.5329  12.9477

     occupation numbers 
     1.0000   1.0000   1.0000   1.0000   1.0000   1.0000   1.0000   1.0000
     1.0000   0.0000   0.0000   0.0000   0.0000   0.0000   0.0000   0.0000
     0.0000   0.0000   0.0000   0.0000   0.0000   0.0000   0.0000   0.0000
     0.0000   0.0000   0.0000   0.0000   0.0000   0.0000

          k = 0.2665 0.0000 0.0000 ( 10092 PWs)   bands (ev):

   -22.1607 -22.1075  -9.1245  -8.3438  -7.9187  -6.9350  -6.9027  -6.8735
    -3.6625   1.5262   2.5690   3.3832   3.6820   4.0609   4.4945   4.8766
     5.7430   5.7887   6.9270   7.3436   7.7746   7.9333   8.4970   9.3532
    10.4359  11.0342  11.9781  12.1803  12.9025  12.9712

     occupation numbers 
     1.0000   1.0000   1.0000   1.0000   1.0000   1.0000   1.0000   1.0000
     1.0000   0.0000   0.0000   0.0000   0.0000   0.0000   0.0000   0.0000
     0.0000   0.0000   0.0000   0.0000   0.0000   0.0000   0.0000   0.0000
     0.0000   0.0000   0.0000   0.0000   0.0000   0.0000

          k = 0.3110-0.0769 0.0000 ( 10083 PWs)   bands (ev):

   -22.0276 -21.9797  -9.2734  -8.7627  -7.8563  -7.0957  -7.0595  -6.7674
    -3.4714   2.0578   2.4281   3.6096   3.6978   4.5168   4.9326   5.2937
     5.9952   6.0649   6.5686   7.0054   7.9856   8.0355   8.7530   9.8263
    10.7297  11.2325  11.8110  12.1234  12.7729  13.0670

     occupation numbers 
     1.0000   1.0000   1.0000   1.0000   1.0000   1.0000   1.0000   1.0000
     1.0000   0.0000   0.0000   0.0000   0.0000   0.0000   0.0000   0.0000
     0.0000   0.0000   0.0000   0.0000   0.0000   0.0000   0.0000   0.0000
     0.0000   0.0000   0.0000   0.0000   0.0000   0.0000

          k = 0.3554-0.1537 0.0000 ( 10118 PWs)   bands (ev):

   -21.8616 -21.8204  -9.5044  -9.1329  -7.5651  -7.4685  -7.4296  -6.5588
    -3.2195   1.9260   2.7327   3.7462   4.1170   5.1043   5.3728   5.6054
     6.0323   6.3675   7.1223   7.1268   8.1789   8.4147   9.0582  10.3959
    11.0272  11.1719  11.2761  12.6926  13.0486  13.3379

     occupation numbers 
     1.0000   1.0000   1.0000   1.0000   1.0000   1.0000   1.0000   1.0000
     1.0000   0.0000   0.0000   0.0000   0.0000   0.0000   0.0000   0.0000
     0.0000   0.0000   0.0000   0.0000   0.0000   0.0000   0.0000   0.0000
     0.0000   0.0000   0.0000   0.0000   0.0000   0.0000

          k = 0.3998-0.2306 0.0000 ( 10139 PWs)   bands (ev):

   -21.6993 -21.6647  -9.6841  -9.3879  -7.9672  -7.8710  -7.1268  -6.3541
    -2.9105   1.1095   3.2844   3.4694   4.7605   5.2195   6.2887   6.3532
     6.7321   6.9740   7.7072   7.7535   8.1929   9.0974   9.9291   9.9865
    10.7060  11.6657  11.6991  12.6214  12.7307  12.7680

     occupation numbers 
     1.0000   1.0000   1.0000   1.0000   1.0000   1.0000   1.0000   1.0000
     1.0000   0.0000   0.0000   0.0000   0.0000   0.0000   0.0000   0.0000
     0.0000   0.0000   0.0000   0.0000   0.0000   0.0000   0.0000   0.0000
     0.0000   0.0000   0.0000   0.0000   0.0000   0.0000

          k =-0.1333 0.6917 0.0000 ( 10122 PWs)   bands (ev):

   -21.5805 -21.5508  -9.7626  -9.5134  -8.3628  -8.2349  -6.7774  -6.2038
    -2.5406   0.1855   3.1627   3.5696   5.6032   5.8509   6.3191   7.2573
     7.6969   7.7453   8.2411   8.3987   9.1984   9.3999  10.0759  10.6096
    10.6163  11.1852  11.2313  11.3403  12.0034  12.0636

     occupation numbers 
     1.0000   1.0000   1.0000   1.0000   1.0000   1.0000   1.0000   1.0000
     1.0000   0.0000   0.0000   0.0000   0.0000   0.0000   0.0000   0.0000
     0.0000   0.0000   0.0000   0.0000   0.0000   0.0000   0.0000   0.0000
     0.0000   0.0000   0.0000   0.0000   0.0000   0.0000

          k =-0.0888 0.6149 0.0000 ( 10121 PWs)   bands (ev):

   -21.5370 -21.5092  -9.7745  -9.5440  -8.5228  -8.3794  -6.6396  -6.1487
    -2.3084  -0.2820   3.0695   3.6572   6.0436   6.2057   6.3575   7.1843
     7.9171   8.9199   9.1481   9.2293   9.4936   9.5815   9.7414   9.8485
    10.3409  10.6605  10.7530  10.9151  11.8362  11.8546

     occupation numbers 
     1.0000   1.0000   1.0000   1.0000   1.0000   1.0000   1.0000   1.0000
     1.0000   0.0000   0.0000   0.0000   0.0000   0.0000   0.0000   0.0000
     0.0000   0.0000   0.0000   0.0000   0.0000   0.0000   0.0000   0.0000
     0.0000   0.0000   0.0000   0.0000   0.0000   0.0000

          k =-0.0444 0.5380 0.0000 ( 10124 PWs)   bands (ev):

   -21.5812 -21.5515  -9.7623  -9.5128  -8.3622  -8.2343  -6.7788  -6.2046
    -2.5441   0.1915   3.1612   3.5692   5.6000   5.8459   6.3228   7.2620
     7.6918   7.7414   8.2371   8.3967   9.1955   9.3946  10.0744  10.6069
    10.6262  11.1836  11.2380  11.3466  11.9999  12.0687

     occupation numbers 
     1.0000   1.0000   1.0000   1.0000   1.0000   1.0000   1.0000   1.0000
     1.0000   0.0000   0.0000   0.0000   0.0000   0.0000   0.0000   0.0000
     0.0000   0.0000   0.0000   0.0000   0.0000   0.0000   0.0000   0.0000
     0.0000   0.0000   0.0000   0.0000   0.0000   0.0000

          k = 0.0000 0.4612 0.0000 ( 10145 PWs)   bands (ev):

   -21.7006 -21.6659  -9.6846  -9.3879  -7.9649  -7.8687  -7.1289  -6.3555
    -2.9141   1.1158   3.2847   3.4681   4.7574   5.2149   6.2906   6.3476
     6.7286   6.9704   7.7035   7.7625   8.1905   9.0949   9.9309   9.9827
    10.7043  11.6625  11.6976  12.6216  12.7332  12.7657

     occupation numbers 
     1.0000   1.0000   1.0000   1.0000   1.0000   1.0000   1.0000   1.0000
     1.0000   0.0000   0.0000   0.0000   0.0000   0.0000   0.0000   0.0000
     0.0000   0.0000   0.0000   0.0000   0.0000   0.0000   0.0000   0.0000
     0.0000   0.0000   0.0000   0.0000   0.0000   0.0000

          k = 0.3554 0.0000 0.0000 ( 10116 PWs)   bands (ev):

   -21.9427 -21.8982  -9.5068  -9.1031  -7.7376  -7.0578  -7.0249  -6.6623
    -3.3698   1.6806   2.2312   3.9101   3.9307   4.9182   5.2392   5.5831
     6.0551   6.2952   7.0855   7.3383   7.4279   8.2951   8.9007  10.1783
    10.7695  11.3084  11.4531  11.7592  12.9307  13.1872

     occupation numbers 
     1.0000   1.0000   1.0000   1.0000   1.0000   1.0000   1.0000   1.0000
     1.0000   0.0000   0.0000   0.0000   0.0000   0.0000   0.0000   0.0000
     0.0000   0.0000   0.0000   0.0000   0.0000   0.0000   0.0000   0.0000
     0.0000   0.0000   0.0000   0.0000   0.0000   0.0000

          k = 0.3998-0.0769 0.0000 ( 10121 PWs)   bands (ev):

   -21.8213 -21.7819  -9.7358  -9.4017  -7.4789  -7.2606  -7.2313  -6.5081
    -3.1868   1.0933   2.6008   4.2636   4.3359   5.5510   5.6272   5.7137
     6.2439   6.3182   7.1390   7.3611   8.0039   8.6836   9.3860  10.4354
    10.9348  10.9965  11.3581  11.9359  12.4588  12.5285

     occupation numbers 
     1.0000   1.0000   1.0000   1.0000   1.0000   1.0000   1.0000   1.0000
     1.0000   0.0000   0.0000   0.0000   0.0000   0.0000   0.0000   0.0000
     0.0000   0.0000   0.0000   0.0000   0.0000   0.0000   0.0000   0.0000
     0.0000   0.0000   0.0000   0.0000   0.0000   0.0000

          k = 0.4442-0.1537 0.0000 ( 10138 PWs)   bands (ev):

   -21.6903 -21.6562  -9.8403  -9.5529  -7.7690  -7.6763  -7.0940  -6.3422
    -2.9155   0.6465   3.1003   4.1190   4.8165   5.2412   6.1696   6.4480
     6.8755   6.8788   7.5770   7.8486   8.4407   9.1677   9.9758  10.1340
    10.7980  11.0389  11.5735  11.8087  11.9523  12.2886

     occupation numbers 
     1.0000   1.0000   1.0000   1.0000   1.0000   1.0000   1.0000   1.0000
     1.0000   0.0000   0.0000   0.0000   0.0000   0.0000   0.0000   0.0000
     0.0000   0.0000   0.0000   0.0000   0.0000   0.0000   0.0000   0.0000
     0.0000   0.0000   0.0000   0.0000   0.0000   0.0000

          k =-0.0888 0.7686 0.0000 ( 10128 PWs)   bands (ev):

   -21.5800 -21.5503  -9.7600  -9.5110  -8.3666  -8.2386  -6.7767  -6.2033
    -2.5378   0.1848   3.1588   3.5679   5.6035   5.8500   6.3224   7.2538
     7.6989   7.7474   8.2441   8.3991   9.1976   9.4017  10.0765  10.6095
    10.6302  11.1907  11.2450  11.3517  11.9927  12.0734

     occupation numbers 
     1.0000   1.0000   1.0000   1.0000   1.0000   1.0000   1.0000   1.0000
     1.0000   0.0000   0.0000   0.0000   0.0000   0.0000   0.0000   0.0000
     0.0000   0.0000   0.0000   0.0000   0.0000   0.0000   0.0000   0.0000
     0.0000   0.0000   0.0000   0.0000   0.0000   0.0000

          k =-0.0444 0.6917 0.0000 ( 10101 PWs)   bands (ev):

   -21.5172 -21.4900  -9.4971  -9.2832  -8.9311  -8.7654  -6.5885  -6.1246
    -2.1346  -0.2969   2.6376   3.8747   6.2962   6.3415   6.3480   7.4441
     7.9242   9.0015   9.1234   9.4525   9.4737  10.2477  10.2784  10.5541
    10.7640  10.7837  11.0437  11.0509  11.1193  11.6457

     occupation numbers 
     1.0000   1.0000   1.0000   1.0000   1.0000   1.0000   1.0000   1.0000
     1.0000   0.0000   0.0000   0.0000   0.0000   0.0000   0.0000   0.0000
     0.0000   0.0000   0.0000   0.0000   0.0000   0.0000   0.0000   0.0000
     0.0000   0.0000   0.0000   0.0000   0.0000   0.0000

          k = 0.0000 0.6149 0.0000 ( 10113 PWs)   bands (ev):

   -21.5176 -21.4905  -9.4990  -9.2848  -8.9285  -8.7630  -6.5893  -6.1251
    -2.1386  -0.2921   2.6379   3.8750   6.2935   6.3389   6.3491   7.4492
     7.9270   8.9914   9.1172   9.4429   9.4700  10.2432  10.2839  10.5559
    10.7565  10.7866  11.0510  11.0549  11.1198  11.6526

     occupation numbers 
     1.0000   1.0000   1.0000   1.0000   1.0000   1.0000   1.0000   1.0000
     1.0000   0.0000   0.0000   0.0000   0.0000   0.0000   0.0000   0.0000
     0.0000   0.0000   0.0000   0.0000   0.0000   0.0000   0.0000   0.0000
     0.0000   0.0000   0.0000   0.0000   0.0000   0.0000

          k = 0.4442 0.0000 0.0000 ( 10134 PWs)   bands (ev):

   -21.7510 -21.7145  -9.9878  -9.6850  -7.2769  -7.1813  -7.1457  -6.4185
    -3.0959   0.3694   2.5484   4.5214   4.7737   5.6785   5.8686   6.1548
     6.6174   7.0002   7.0359   7.6820   8.1820   9.0120   9.4786  10.2832
    10.3229  11.0185  11.2996  11.6095  11.6391  11.7602

     occupation numbers 
     1.0000   1.0000   1.0000   1.0000   1.0000   1.0000   1.0000   1.0000
     1.0000   0.0000   0.0000   0.0000   0.0000   0.0000   0.0000   0.0000
     0.0000   0.0000   0.0000   0.0000   0.0000   0.0000   0.0000   0.0000
     0.0000   0.0000   0.0000   0.0000   0.0000   0.0000

          k = 0.4887-0.0769 0.0000 ( 10110 PWs)   bands (ev):

   -21.6673 -21.6343 -10.1100  -9.8317  -7.4149  -7.3494  -7.0173  -6.3117
    -2.9157  -0.0594   2.7547   4.8968   5.1174   5.4225   6.1113   6.5828
     6.9648   7.2080   7.6831   8.0835   8.6759   9.3065   9.7446  10.0156
    10.3872  10.6571  10.6683  11.1410  11.4251  11.5295

     occupation numbers 
     1.0000   1.0000   1.0000   1.0000   1.0000   1.0000   1.0000   1.0000
     1.0000   0.0000   0.0000   0.0000   0.0000   0.0000   0.0000   0.0000
     0.0000   0.0000   0.0000   0.0000   0.0000   0.0000   0.0000   0.0000
     0.0000   0.0000   0.0000   0.0000   0.0000   0.0000

          k =-0.0444 0.8455 0.0000 ( 10114 PWs)   bands (ev):

   -21.5899 -21.5600 -10.0383  -9.7834  -7.9166  -7.8132  -6.7879  -6.2143
    -2.6327  -0.2364   3.1886   4.1248   5.4423   5.7574   6.3085   6.8249
     7.8637   7.9099   8.3765   8.5488   9.3252   9.3380   9.7208   9.9382
    10.0410  10.3962  10.8542  11.0688  11.1890  11.4820

     occupation numbers 
     1.0000   1.0000   1.0000   1.0000   1.0000   1.0000   1.0000   1.0000
     1.0000   0.0000   0.0000   0.0000   0.0000   0.0000   0.0000   0.0000
     0.0000   0.0000   0.0000   0.0000   0.0000   0.0000   0.0000   0.0000
     0.0000   0.0000   0.0000   0.0000   0.0000   0.0000

          k = 0.0000 0.7686 0.0000 ( 10131 PWs)   bands (ev):

   -21.5360 -21.5082  -9.7707  -9.5407  -8.5285  -8.3849  -6.6381  -6.1477
    -2.3011  -0.2878   3.0652   3.6551   6.0426   6.2045   6.3641   7.1820
     7.9166   8.9266   9.1523   9.2318   9.5061   9.5839   9.7475   9.8538
    10.3455  10.6646  10.7641  10.9204  11.8225  11.8654

     occupation numbers 
     1.0000   1.0000   1.0000   1.0000   1.0000   1.0000   1.0000   1.0000
     1.0000   0.0000   0.0000   0.0000   0.0000   0.0000   0.0000   0.0000
     0.0000   0.0000   0.0000   0.0000   0.0000   0.0000   0.0000   0.0000
     0.0000   0.0000   0.0000   0.0000   0.0000   0.0000

          k = 0.5331 0.0000 0.0000 ( 10126 PWs)   bands (ev):

   -21.6377 -21.6062 -10.2725 -10.0005  -7.2492  -7.2121  -6.9283  -6.2730
    -2.8723  -0.5045   2.5854   4.9769   5.1286   6.1594   6.2376   6.8198
     7.5024   7.6286   7.8410   8.3561   8.6210   9.2439   9.2947   9.5988
     9.8545  10.2334  10.2346  10.9300  11.0869  11.6278

     occupation numbers 
     1.0000   1.0000   1.0000   1.0000   1.0000   1.0000   1.0000   1.0000
     1.0000   0.0000   0.0000   0.0000   0.0000   0.0000   0.0000   0.0000
     0.0000   0.0000   0.0000   0.0000   0.0000   0.0000   0.0000   0.0000
     0.0000   0.0000   0.0000   0.0000   0.0000   0.0000

          k = 0.0000 0.9223 0.0000 ( 10112 PWs)   bands (ev):

   -21.6099 -21.5795 -10.2477  -9.9833  -7.4547  -7.3912  -6.8350  -6.2381
    -2.7676  -0.5471   2.7622   5.1000   5.1628   5.8724   6.3325   6.5778
     7.8946   7.9702   8.4807   8.6508   8.6883   9.1171   9.1336   9.6232
     9.7579  10.2753  10.2801  10.8946  11.1531  11.4015

     occupation numbers 
     1.0000   1.0000   1.0000   1.0000   1.0000   1.0000   1.0000   1.0000
     1.0000   0.0000   0.0000   0.0000   0.0000   0.0000   0.0000   0.0000
     0.0000   0.0000   0.0000   0.0000   0.0000   0.0000   0.0000   0.0000
     0.0000   0.0000   0.0000   0.0000   0.0000   0.0000

     highest occupied, lowest unoccupied level (ev):    -2.1346   -0.5471

!    total energy              =    -162.27325413 Ry
     total all-electron energy =     -1272.252595 Ry
     estimated scf accuracy    <          2.8E-09 Ry

     The total energy is the sum of the following terms:
     one-electron contribution =    -685.23238926 Ry
     hartree contribution      =     347.91847662 Ry
     xc contribution           =     -20.49018107 Ry
     ewald contribution        =     283.53156309 Ry
     one-center paw contrib.   =     -88.00072352 Ry
      -> PAW hartree energy AE =      27.61259632 Ry
      -> PAW hartree energy PS =     -27.57875859 Ry
      -> PAW xc energy AE      =     -16.90599476 Ry
      -> PAW xc energy PS      =       7.39201649 Ry
      -> total E_H with PAW    =     347.95231436 Ry
      -> total E_XC with PAW   =     -30.00415934 Ry

     convergence has been achieved in  11 iterations

     Writing all to output data dir ./work/Al2O2.save/
 
     init_run     :      4.17s CPU      4.34s WALL (       1 calls)
     electrons    :     25.57s CPU     31.66s WALL (       1 calls)

     Called by init_run:
     wfcinit      :      0.56s CPU      0.70s WALL (       1 calls)
     wfcinit:atom :      0.00s CPU      0.00s WALL (      49 calls)
     wfcinit:wfcr :      0.53s CPU      0.67s WALL (      49 calls)
     potinit      :      3.45s CPU      3.48s WALL (       1 calls)
     hinit0       :      0.10s CPU      0.10s WALL (       1 calls)

     Called by electrons:
     c_bands      :     21.39s CPU     26.44s WALL (      11 calls)
     sum_band     :      3.05s CPU      3.95s WALL (      11 calls)
     v_of_rho     :      3.76s CPU      3.86s WALL (      12 calls)
     v_h          :      0.00s CPU      0.01s WALL (      12 calls)
     v_xc         :      3.75s CPU      3.85s WALL (      12 calls)
     newd         :      0.40s CPU      0.41s WALL (      12 calls)
     PAW_pot      :      0.41s CPU      0.44s WALL (      12 calls)
     mix_rho      :      0.02s CPU      0.03s WALL (      11 calls)
     vdW_kernel   :      3.36s CPU      3.37s WALL (       1 calls)

     Called by c_bands:
     init_us_2    :      0.22s CPU      0.26s WALL (    1127 calls)
     init_us_2:cp :      0.22s CPU      0.26s WALL (    1127 calls)
     cegterg      :     20.26s CPU     25.27s WALL (     539 calls)

     Called by sum_band:
     sum_band:wei :      0.00s CPU      0.00s WALL (      11 calls)
     sum_band:loo :      2.55s CPU      3.43s WALL (      11 calls)
     sum_band:buf :      0.07s CPU      0.09s WALL (     539 calls)
     sum_band:ini :      0.07s CPU      0.10s WALL (     539 calls)
     sum_band:cal :      0.17s CPU      0.23s WALL (     539 calls)
     sum_band:bec :      0.00s CPU      0.01s WALL (     539 calls)
     addusdens    :      0.48s CPU      0.50s WALL (      11 calls)
     addusd:skk   :      0.00s CPU      0.00s WALL (      22 calls)
     addusd:dgemm :      0.34s CPU      0.35s WALL (      22 calls)
     addusd:qvan2 :      0.14s CPU      0.14s WALL (      22 calls)

     Called by *egterg:
     cdiaghg      :      1.70s CPU      1.91s WALL (    2895 calls)
     cegterg:over :      1.09s CPU      1.30s WALL (    2356 calls)
     cegterg:upda :      0.76s CPU      0.83s WALL (    2356 calls)
     cegterg:last :      1.54s CPU      1.62s WALL (    1296 calls)
     h_psi        :     14.38s CPU     18.71s WALL (    2944 calls)
     s_psi        :      0.64s CPU      0.78s WALL (    2944 calls)
     g_psi        :      0.07s CPU      0.07s WALL (    2356 calls)

     Called by h_psi:
     h_psi:calbec :      0.68s CPU      0.90s WALL (    2944 calls)
     vloc_psi     :     12.79s CPU     16.68s WALL (    2944 calls)
     add_vuspsi   :      0.69s CPU      0.90s WALL (    2944 calls)

     General routines
     calbec       :      0.85s CPU      1.13s WALL (    3483 calls)
     fft          :      0.16s CPU      0.22s WALL (     732 calls)
     ffts         :      0.00s CPU      0.00s WALL (      11 calls)
     fftw         :     14.13s CPU     18.54s WALL (  107622 calls)
 
     Parallel routines

     PAW routines
     PAW_pot      :      0.41s CPU      0.44s WALL (      12 calls)
     PAW_symme    :      0.00s CPU      0.00s WALL (      23 calls)
 
     PWSCF        :     29.88s CPU     36.35s WALL

 
   This run was terminated on:  12:40:37  22Jun2023            

=------------------------------------------------------------------------------=
   JOB DONE.
=------------------------------------------------------------------------------=
