
     Program PWSCF v.7.1 starts on 22Jun2023 at 12:40:39 

     This program is part of the open-source Quantum ESPRESSO suite
     for quantum simulation of materials; please cite
         "P. Giannozzi et al., J. Phys.:Condens. Matter 21 395502 (2009);
         "P. Giannozzi et al., J. Phys.:Condens. Matter 29 465901 (2017);
         "P. Giannozzi et al., J. Chem. Phys. 152 154105 (2020);
          URL http://www.quantum-espresso.org", 
     in publications or presentations arising from this work. More details at
     http://www.quantum-espresso.org/quote

     Parallel version (MPI), running on    10 processors

     MPI processes distributed on     1 nodes
     43802 MiB available memory on the printing compute node when the environment starts
 
     Waiting for input...
     Reading input from standard input

     Current dimensions of program PWSCF are:
     Max number of different atomic species (ntypx) = 10
     Max number of k-points (npk) =  40000
     Max angular momentum in pseudopotentials (lmaxx) =  4
     Message from routine volume:
     axis vectors are left-handed

     Atomic positions and unit cell read from directory:
     ./work/Al2O2.save/
     Atomic positions from file used, from input discarded
 
     Message from routine volume:
     axis vectors are left-handed
     file Al.pbe-n-kjpaw_psl.1.0.0.UPF: wavefunction(s)  3S 3P renormalized
     file O.pbe-n-kjpaw_psl.1.0.0.UPF: wavefunction(s)  2S 2P renormalized

     IMPORTANT: XC functional enforced from input :
     Exchange-correlation= VDW-DF2-B86R
                           (   1   4  26   0   2   0   0)
     Any further DFT definition will be discarded
     Please, verify this is what you really want

     Message from routine setup:
     using ibrav=0 with symmetry is DISCOURAGED, use correct ibrav instead
 
     R & G space division:  proc/nbgrp/npool/nimage =      10
     Subspace diagonalization in iterative solution of the eigenvalue problem:
     a serial algorithm will be used

 
     Parallelization info
     --------------------
     sticks:   dense  smooth     PW     G-vecs:    dense   smooth      PW
     Min          51      51     16                 8069     8069    1326
     Max          52      52     17                 8098     8098    1358
     Sum         511     511    163                80759    80759   13317
 
     Using Slab Decomposition
 


     bravais-lattice index     =            0
     lattice parameter (alat)  =       5.6077  a.u.
     unit-cell volume          =    1287.2819 (a.u.)^3
     number of atoms/cell      =            4
     number of atomic types    =            2
     number of electrons       =        18.00
     number of Kohn-Sham states=           30
     kinetic-energy cutoff     =      60.0000  Ry
     charge density cutoff     =     240.0000  Ry
     Exchange-correlation= VDW-DF2-B86R
                           (   1   4  26   0   2   0   0)

     celldm(1)=   5.607660  celldm(2)=   0.000000  celldm(3)=   0.000000
     celldm(4)=   0.000000  celldm(5)=   0.000000  celldm(6)=   0.000000

     crystal axes: (cart. coord. in units of alat)
               a(1) = (   0.865785   0.500416   0.000000 )  
               a(2) = (   0.865785  -0.500416   0.000000 )  
               a(3) = (   0.000000   0.000000   8.424753 )  

     reciprocal axes: (cart. coord. in units 2 pi/alat)
               b(1) = (  0.577511  0.999168  0.000000 )  
               b(2) = (  0.577511 -0.999168  0.000000 )  
               b(3) = (  0.000000  0.000000  0.118698 )  


     PseudoPot. # 1 for Al read from file:
     /home/mainadmin/research/danu/pseudo/Al.pbe-n-kjpaw_psl.1.0.0.UPF
     MD5 check sum: 502b6b27b9c6270cab5dd1084b96fa6d
     Pseudo is Projector augmented-wave + core cor, Zval =  3.0
     Generated using &quot;atomic&quot; code by A. Dal Corso  v.6.3
     Shape of augmentation charge: PSQ
     Using radial grid of 1135 points,  6 beta functions with: 
                l(1) =   0
                l(2) =   0
                l(3) =   1
                l(4) =   1
                l(5) =   2
                l(6) =   2
     Q(r) pseudized with 0 coefficients 


     PseudoPot. # 2 for O  read from file:
     /home/mainadmin/research/danu/pseudo/O.pbe-n-kjpaw_psl.1.0.0.UPF
     MD5 check sum: e99d9cef9b487d1ca56f5b95ecd0fd7a
     Pseudo is Projector augmented-wave + core cor, Zval =  6.0
     Generated using &quot;atomic&quot; code by A. Dal Corso  v.6.3
     Shape of augmentation charge: PSQ
     Using radial grid of 1095 points,  4 beta functions with: 
                l(1) =   0
                l(2) =   0
                l(3) =   1
                l(4) =   1
     Q(r) pseudized with 0 coefficients 


     atomic species   valence    mass     pseudopotential
        Al             3.00    26.98100     Al( 1.00)
        O              6.00    15.99900     O ( 1.00)

      2 Sym. Ops. (no inversion) found


                                    s                        frac. trans.

      isym =  1     identity                                     

 cryst.   s( 1) = (     1          0          0      )
                  (     0          1          0      )
                  (     0          0          1      )

 cart.    s( 1) = (  1.0000000  0.0000000  0.0000000 )
                  (  0.0000000  1.0000000  0.0000000 )
                  (  0.0000000  0.0000000  1.0000000 )


      isym =  2     inv. 180 deg rotation - cart. axis [0,1,0]   

 cryst.   s( 2) = (     0          1          0      )
                  (     1          0          0      )
                  (     0          0          1      )

 cart.    s( 2) = (  1.0000000  0.0000000  0.0000000 )
                  (  0.0000000 -1.0000000  0.0000000 )
                  (  0.0000000  0.0000000  1.0000000 )


   Cartesian axes

     site n.     atom                  positions (alat units)
         1           O   tau(   1) = (   1.1545543   0.0000000   3.5627092  )
         2           Al  tau(   2) = (   0.5770722   0.0000000   3.7830565  )
         3           Al  tau(   3) = (   0.5770183   0.0000000   4.6637429  )
         4           O   tau(   4) = (   1.1544952   0.0000000   4.8840673  )

   Crystallographic axes

     site n.     atom                  positions (cryst. coord.)
         1           O   tau(   1) = (  0.6667673  0.6667673  0.4228859  )
         2           Al  tau(   2) = (  0.3332653  0.3332653  0.4490406  )
         3           Al  tau(   3) = (  0.3332342  0.3332342  0.5535762  )
         4           O   tau(   4) = (  0.6667332  0.6667332  0.5797282  )

     number of k points=    91
                       cart. coord. in units 2pi/alat
        k(    1) = (   0.0000000   0.0000000   0.0000000), wk =   0.0219780
        k(    2) = (   0.0192504   0.0110894   0.0000000), wk =   0.0219780
        k(    3) = (   0.0385007   0.0221789   0.0000000), wk =   0.0219780
        k(    4) = (   0.0577511   0.0332683   0.0000000), wk =   0.0219780
        k(    5) = (   0.0770014   0.0443577   0.0000000), wk =   0.0219780
        k(    6) = (   0.0962518   0.0554472   0.0000000), wk =   0.0219780
        k(    7) = (   0.1155021   0.0665366   0.0000000), wk =   0.0219780
        k(    8) = (   0.1347525   0.0776261   0.0000000), wk =   0.0219780
        k(    9) = (   0.1540028   0.0887155   0.0000000), wk =   0.0219780
        k(   10) = (   0.1732532   0.0998049   0.0000000), wk =   0.0219780
        k(   11) = (   0.1925035   0.1108944   0.0000000), wk =   0.0219780
        k(   12) = (   0.2117539   0.1219838   0.0000000), wk =   0.0219780
        k(   13) = (   0.2310042   0.1330732   0.0000000), wk =   0.0219780
        k(   14) = (   0.2502546   0.1441627   0.0000000), wk =   0.0219780
        k(   15) = (   0.2695049   0.1552521   0.0000000), wk =   0.0219780
        k(   16) = (   0.2887553   0.1663415   0.0000000), wk =   0.0219780
        k(   17) = (   0.3080056   0.1774310   0.0000000), wk =   0.0219780
        k(   18) = (   0.3272560   0.1885204   0.0000000), wk =   0.0219780
        k(   19) = (   0.3465064   0.1996099   0.0000000), wk =   0.0219780
        k(   20) = (   0.3657567   0.2106993   0.0000000), wk =   0.0219780
        k(   21) = (   0.3850071   0.2217887   0.0000000), wk =   0.0219780
        k(   22) = (   0.4042574   0.2328782   0.0000000), wk =   0.0219780
        k(   23) = (   0.4235078   0.2439676   0.0000000), wk =   0.0219780
        k(   24) = (   0.4427581   0.2550570   0.0000000), wk =   0.0219780
        k(   25) = (   0.4620085   0.2661465   0.0000000), wk =   0.0219780
        k(   26) = (   0.4812588   0.2772359   0.0000000), wk =   0.0219780
        k(   27) = (   0.5005092   0.2883254   0.0000000), wk =   0.0219780
        k(   28) = (   0.5197595   0.2994148   0.0000000), wk =   0.0219780
        k(   29) = (   0.5390099   0.3105042   0.0000000), wk =   0.0219780
        k(   30) = (   0.5582602   0.3215937   0.0000000), wk =   0.0219780
        k(   31) = (   0.5775106   0.3326831   0.0000000), wk =   0.0219780
        k(   32) = (   0.5775106   0.3215937   0.0000000), wk =   0.0219780
        k(   33) = (   0.5775106   0.3105042   0.0000000), wk =   0.0219780
        k(   34) = (   0.5775106   0.2994148   0.0000000), wk =   0.0219780
        k(   35) = (   0.5775106   0.2883254   0.0000000), wk =   0.0219780
        k(   36) = (   0.5775106   0.2772359   0.0000000), wk =   0.0219780
        k(   37) = (   0.5775106   0.2661465   0.0000000), wk =   0.0219780
        k(   38) = (   0.5775106   0.2550570   0.0000000), wk =   0.0219780
        k(   39) = (   0.5775106   0.2439676   0.0000000), wk =   0.0219780
        k(   40) = (   0.5775106   0.2328782   0.0000000), wk =   0.0219780
        k(   41) = (   0.5775106   0.2217887   0.0000000), wk =   0.0219780
        k(   42) = (   0.5775106   0.2106993   0.0000000), wk =   0.0219780
        k(   43) = (   0.5775106   0.1996099   0.0000000), wk =   0.0219780
        k(   44) = (   0.5775106   0.1885204   0.0000000), wk =   0.0219780
        k(   45) = (   0.5775106   0.1774310   0.0000000), wk =   0.0219780
        k(   46) = (   0.5775106   0.1663415   0.0000000), wk =   0.0219780
        k(   47) = (   0.5775106   0.1552521   0.0000000), wk =   0.0219780
        k(   48) = (   0.5775106   0.1441627   0.0000000), wk =   0.0219780
        k(   49) = (   0.5775106   0.1330732   0.0000000), wk =   0.0219780
        k(   50) = (   0.5775106   0.1219838   0.0000000), wk =   0.0219780
        k(   51) = (   0.5775106   0.1108944   0.0000000), wk =   0.0219780
        k(   52) = (   0.5775106   0.0998049   0.0000000), wk =   0.0219780
        k(   53) = (   0.5775106   0.0887155   0.0000000), wk =   0.0219780
        k(   54) = (   0.5775106   0.0776261   0.0000000), wk =   0.0219780
        k(   55) = (   0.5775106   0.0665366   0.0000000), wk =   0.0219780
        k(   56) = (   0.5775106   0.0554472   0.0000000), wk =   0.0219780
        k(   57) = (   0.5775106   0.0443577   0.0000000), wk =   0.0219780
        k(   58) = (   0.5775106   0.0332683   0.0000000), wk =   0.0219780
        k(   59) = (   0.5775106   0.0221789   0.0000000), wk =   0.0219780
        k(   60) = (   0.5775106   0.0110894   0.0000000), wk =   0.0219780
        k(   61) = (   0.5775106   0.0000000   0.0000000), wk =   0.0219780
        k(   62) = (   0.5582602   0.0000000   0.0000000), wk =   0.0219780
        k(   63) = (   0.5390099   0.0000000   0.0000000), wk =   0.0219780
        k(   64) = (   0.5197595   0.0000000   0.0000000), wk =   0.0219780
        k(   65) = (   0.5005092   0.0000000   0.0000000), wk =   0.0219780
        k(   66) = (   0.4812588   0.0000000   0.0000000), wk =   0.0219780
        k(   67) = (   0.4620085   0.0000000   0.0000000), wk =   0.0219780
        k(   68) = (   0.4427581   0.0000000   0.0000000), wk =   0.0219780
        k(   69) = (   0.4235078   0.0000000   0.0000000), wk =   0.0219780
        k(   70) = (   0.4042574   0.0000000   0.0000000), wk =   0.0219780
        k(   71) = (   0.3850071   0.0000000   0.0000000), wk =   0.0219780
        k(   72) = (   0.3657567   0.0000000   0.0000000), wk =   0.0219780
        k(   73) = (   0.3465064   0.0000000   0.0000000), wk =   0.0219780
        k(   74) = (   0.3272560   0.0000000   0.0000000), wk =   0.0219780
        k(   75) = (   0.3080056   0.0000000   0.0000000), wk =   0.0219780
        k(   76) = (   0.2887553   0.0000000   0.0000000), wk =   0.0219780
        k(   77) = (   0.2695049   0.0000000   0.0000000), wk =   0.0219780
        k(   78) = (   0.2502546   0.0000000   0.0000000), wk =   0.0219780
        k(   79) = (   0.2310042   0.0000000   0.0000000), wk =   0.0219780
        k(   80) = (   0.2117539   0.0000000   0.0000000), wk =   0.0219780
        k(   81) = (   0.1925035   0.0000000   0.0000000), wk =   0.0219780
        k(   82) = (   0.1732532   0.0000000   0.0000000), wk =   0.0219780
        k(   83) = (   0.1540028   0.0000000   0.0000000), wk =   0.0219780
        k(   84) = (   0.1347525   0.0000000   0.0000000), wk =   0.0219780
        k(   85) = (   0.1155021   0.0000000   0.0000000), wk =   0.0219780
        k(   86) = (   0.0962518   0.0000000   0.0000000), wk =   0.0219780
        k(   87) = (   0.0770014   0.0000000   0.0000000), wk =   0.0219780
        k(   88) = (   0.0577511   0.0000000   0.0000000), wk =   0.0219780
        k(   89) = (   0.0385007   0.0000000   0.0000000), wk =   0.0219780
        k(   90) = (   0.0192504   0.0000000   0.0000000), wk =   0.0219780
        k(   91) = (   0.0000000   0.0000000   0.0000000), wk =   0.0219780

                       cryst. coord.
        k(    1) = (   0.0000000   0.0000000   0.0000000), wk =   0.0219780
        k(    2) = (   0.0222160   0.0111173   0.0000000), wk =   0.0219780
        k(    3) = (   0.0444320   0.0222347   0.0000000), wk =   0.0219780
        k(    4) = (   0.0666480   0.0333520   0.0000000), wk =   0.0219780
        k(    5) = (   0.0888640   0.0444693   0.0000000), wk =   0.0219780
        k(    6) = (   0.1110800   0.0555867   0.0000000), wk =   0.0219780
        k(    7) = (   0.1332960   0.0667040   0.0000000), wk =   0.0219780
        k(    8) = (   0.1555120   0.0778213   0.0000000), wk =   0.0219780
        k(    9) = (   0.1777280   0.0889387   0.0000000), wk =   0.0219780
        k(   10) = (   0.1999440   0.1000560   0.0000000), wk =   0.0219780
        k(   11) = (   0.2221600   0.1111733   0.0000000), wk =   0.0219780
        k(   12) = (   0.2443760   0.1222907   0.0000000), wk =   0.0219780
        k(   13) = (   0.2665920   0.1334080   0.0000000), wk =   0.0219780
        k(   14) = (   0.2888080   0.1445253   0.0000000), wk =   0.0219780
        k(   15) = (   0.3110240   0.1556427   0.0000000), wk =   0.0219780
        k(   16) = (   0.3332400   0.1667600   0.0000000), wk =   0.0219780
        k(   17) = (   0.3554560   0.1778773   0.0000000), wk =   0.0219780
        k(   18) = (   0.3776720   0.1889947   0.0000000), wk =   0.0219780
        k(   19) = (   0.3998880   0.2001120   0.0000000), wk =   0.0219780
        k(   20) = (   0.4221040   0.2112293   0.0000000), wk =   0.0219780
        k(   21) = (   0.4443200   0.2223467   0.0000000), wk =   0.0219780
        k(   22) = (   0.4665360   0.2334640   0.0000000), wk =   0.0219780
        k(   23) = (   0.4887520   0.2445813   0.0000000), wk =   0.0219780
        k(   24) = (   0.5109680   0.2556987   0.0000000), wk =   0.0219780
        k(   25) = (   0.5331840   0.2668160   0.0000000), wk =   0.0219780
        k(   26) = (   0.5554000   0.2779333   0.0000000), wk =   0.0219780
        k(   27) = (   0.5776160   0.2890507   0.0000000), wk =   0.0219780
        k(   28) = (   0.5998320   0.3001680   0.0000000), wk =   0.0219780
        k(   29) = (   0.6220480   0.3112853   0.0000000), wk =   0.0219780
        k(   30) = (   0.6442640   0.3224027   0.0000000), wk =   0.0219780
        k(   31) = (   0.6664800   0.3335200   0.0000000), wk =   0.0219780
        k(   32) = (   0.6609307   0.3390693   0.0000000), wk =   0.0219780
        k(   33) = (   0.6553813   0.3446187   0.0000000), wk =   0.0219780
        k(   34) = (   0.6498320   0.3501680   0.0000000), wk =   0.0219780
        k(   35) = (   0.6442827   0.3557173   0.0000000), wk =   0.0219780
        k(   36) = (   0.6387333   0.3612667   0.0000000), wk =   0.0219780
        k(   37) = (   0.6331840   0.3668160   0.0000000), wk =   0.0219780
        k(   38) = (   0.6276347   0.3723653   0.0000000), wk =   0.0219780
        k(   39) = (   0.6220853   0.3779147   0.0000000), wk =   0.0219780
        k(   40) = (   0.6165360   0.3834640   0.0000000), wk =   0.0219780
        k(   41) = (   0.6109867   0.3890133   0.0000000), wk =   0.0219780
        k(   42) = (   0.6054373   0.3945627   0.0000000), wk =   0.0219780
        k(   43) = (   0.5998880   0.4001120   0.0000000), wk =   0.0219780
        k(   44) = (   0.5943387   0.4056613   0.0000000), wk =   0.0219780
        k(   45) = (   0.5887893   0.4112107   0.0000000), wk =   0.0219780
        k(   46) = (   0.5832400   0.4167600   0.0000000), wk =   0.0219780
        k(   47) = (   0.5776907   0.4223093   0.0000000), wk =   0.0219780
        k(   48) = (   0.5721413   0.4278587   0.0000000), wk =   0.0219780
        k(   49) = (   0.5665920   0.4334080   0.0000000), wk =   0.0219780
        k(   50) = (   0.5610427   0.4389573   0.0000000), wk =   0.0219780
        k(   51) = (   0.5554933   0.4445067   0.0000000), wk =   0.0219780
        k(   52) = (   0.5499440   0.4500560   0.0000000), wk =   0.0219780
        k(   53) = (   0.5443947   0.4556053   0.0000000), wk =   0.0219780
        k(   54) = (   0.5388453   0.4611547   0.0000000), wk =   0.0219780
        k(   55) = (   0.5332960   0.4667040   0.0000000), wk =   0.0219780
        k(   56) = (   0.5277467   0.4722533   0.0000000), wk =   0.0219780
        k(   57) = (   0.5221973   0.4778027   0.0000000), wk =   0.0219780
        k(   58) = (   0.5166480   0.4833520   0.0000000), wk =   0.0219780
        k(   59) = (   0.5110987   0.4889013   0.0000000), wk =   0.0219780
        k(   60) = (   0.5055493   0.4944507   0.0000000), wk =   0.0219780
        k(   61) = (   0.5000000   0.5000000   0.0000000), wk =   0.0219780
        k(   62) = (   0.4833333   0.4833333   0.0000000), wk =   0.0219780
        k(   63) = (   0.4666667   0.4666667   0.0000000), wk =   0.0219780
        k(   64) = (   0.4500000   0.4500000   0.0000000), wk =   0.0219780
        k(   65) = (   0.4333333   0.4333333   0.0000000), wk =   0.0219780
        k(   66) = (   0.4166667   0.4166667   0.0000000), wk =   0.0219780
        k(   67) = (   0.4000000   0.4000000   0.0000000), wk =   0.0219780
        k(   68) = (   0.3833333   0.3833333   0.0000000), wk =   0.0219780
        k(   69) = (   0.3666667   0.3666667   0.0000000), wk =   0.0219780
        k(   70) = (   0.3500000   0.3500000   0.0000000), wk =   0.0219780
        k(   71) = (   0.3333333   0.3333333   0.0000000), wk =   0.0219780
        k(   72) = (   0.3166667   0.3166667   0.0000000), wk =   0.0219780
        k(   73) = (   0.3000000   0.3000000   0.0000000), wk =   0.0219780
        k(   74) = (   0.2833333   0.2833333   0.0000000), wk =   0.0219780
        k(   75) = (   0.2666667   0.2666667   0.0000000), wk =   0.0219780
        k(   76) = (   0.2500000   0.2500000   0.0000000), wk =   0.0219780
        k(   77) = (   0.2333333   0.2333333   0.0000000), wk =   0.0219780
        k(   78) = (   0.2166667   0.2166667   0.0000000), wk =   0.0219780
        k(   79) = (   0.2000000   0.2000000   0.0000000), wk =   0.0219780
        k(   80) = (   0.1833333   0.1833333   0.0000000), wk =   0.0219780
        k(   81) = (   0.1666667   0.1666667   0.0000000), wk =   0.0219780
        k(   82) = (   0.1500000   0.1500000   0.0000000), wk =   0.0219780
        k(   83) = (   0.1333333   0.1333333   0.0000000), wk =   0.0219780
        k(   84) = (   0.1166667   0.1166667   0.0000000), wk =   0.0219780
        k(   85) = (   0.1000000   0.1000000   0.0000000), wk =   0.0219780
        k(   86) = (   0.0833333   0.0833333   0.0000000), wk =   0.0219780
        k(   87) = (   0.0666667   0.0666667   0.0000000), wk =   0.0219780
        k(   88) = (   0.0500000   0.0500000   0.0000000), wk =   0.0219780
        k(   89) = (   0.0333333   0.0333333   0.0000000), wk =   0.0219780
        k(   90) = (   0.0166667   0.0166667   0.0000000), wk =   0.0219780
        k(   91) = (   0.0000000   0.0000000   0.0000000), wk =   0.0219780

     Dense  grid:    80759 G-vectors     FFT dimensions: (  27,  27, 240)

     Dynamical RAM for                 wfc:       0.46 MB

     Dynamical RAM for     wfc (w. buffer):       0.46 MB

     Dynamical RAM for           str. fact:       0.25 MB

     Dynamical RAM for           local pot:       0.00 MB

     Dynamical RAM for          nlocal pot:       0.80 MB

     Dynamical RAM for                qrad:       2.49 MB

     Dynamical RAM for          rho,v,vnew:       0.77 MB

     Dynamical RAM for           G-vectors:       0.52 MB

     Dynamical RAM for          h,s,v(r/c):       0.16 MB

     Dynamical RAM for          <psi|beta>:       0.02 MB

     Dynamical RAM for                 psi:       0.92 MB

     Dynamical RAM for                hpsi:       0.92 MB

     Dynamical RAM for                spsi:       0.92 MB

     Dynamical RAM for      wfcinit/wfcrot:       0.95 MB

     Dynamical RAM for           addusdens:      23.15 MB

     Estimated static dynamical RAM per process >       6.33 MB

     Estimated max dynamical RAM per process >      29.48 MB

     Estimated total dynamical RAM >     294.81 MB

     Check: negative core charge=   -0.000003

     The potential is recalculated from file :
     ./work/Al2O2.save/charge-density


     negative rho (up, down):  1.792E-03 0.000E+00


     %%%%%%%%%%%%%%%%%%%%%%%%%%%%%%%%%%%%%%%%%%%%%%%%%%%%%%%%%%%%%%%%%%%%%%%%
     %                                                                      %
     % You are using vdW-DF, which was implemented by the Thonhauser group. %
     % Please cite the following two papers that made this development      %
     % possible and the two reviews that describe the various versions:     %
     %                                                                      %
     %   T. Thonhauser et al., PRL 115, 136402 (2015).                      %
     %   T. Thonhauser et al., PRB 76, 125112 (2007).                       %
     %   K. Berland et al., Rep. Prog. Phys. 78, 066501 (2015).             %
     %   D.C. Langreth et al., J. Phys.: Condens. Matter 21, 084203 (2009). %
     %                                                                      %
     % If you are calculating stress with vdW-DF, please also cite:         %
     %                                                                      %
     %   R. Sabatini et al., J. Phys.: Condens. Matter 24, 424209 (2012).   %
     %                                                                      %
     %%%%%%%%%%%%%%%%%%%%%%%%%%%%%%%%%%%%%%%%%%%%%%%%%%%%%%%%%%%%%%%%%%%%%%%%

     %%%%%%%%%%%%%%%%%%%%%%%%%%%%%%%%%%%%%%%%%%%%%%%%%%%%%%%%%%%%%%%%%%%%%%%%
     %                                                                      %
     %  vdW-DF NEWS:                                                        %
     %                                                                      %
     %  * vdW-DF3 is now available. DOI: 10.1021/acs.jctc.0c00471           %
     %    use with input_dft = 'vdW-DF3-opt1' or 'vdW-DF3-opt2'             %
     %                                                                      %
     %  * Unscreened and range-separated vdW-DF hybrid functionals          %
     %    DOI: 10.1063/1.4986522 and 10.1088/1361-648X/ac2ad2               %
     %    use with input_dft = 'vdW-DF-cx0' (etc) and 'vdW-DF-ahcx'         %
     %                                                                      %
     %%%%%%%%%%%%%%%%%%%%%%%%%%%%%%%%%%%%%%%%%%%%%%%%%%%%%%%%%%%%%%%%%%%%%%%%


     Carrying out vdW-DF run using the following parameters:
     Nqs    =  20  Npoints =  1024  r_max =  100.000
     q_mesh =  0.00001000  0.04494208  0.09755937  0.15916263
               0.23128650  0.31572767  0.41458969  0.53033537
               0.66584808  0.82450364  1.01025438  1.22772762
               1.48234092  1.78043706  2.12944203  2.53805004
               3.01644009  3.57652955  4.23227104  5.00000000


     -----------------------------------------------
     Non-local corr. energy    =       0.24052253 Ry
     -----------------------------------------------

     Starting wfcs are   16 randomized atomic wfcs +   14 random wfcs
     Checking if some PAW data can be deallocated... 
       PAW data deallocated on    5 nodes for type:  1
       PAW data deallocated on    5 nodes for type:  2

     Band Structure Calculation
     Davidson diagonalization with overlap

     Computing kpt #:     1  of    91
     total cpu time spent up to now is        4.4 secs

     Computing kpt #:     2  of    91
     total cpu time spent up to now is        5.0 secs

     Computing kpt #:     3  of    91
     total cpu time spent up to now is        5.6 secs

     Computing kpt #:     4  of    91
     total cpu time spent up to now is        6.2 secs

     Computing kpt #:     5  of    91
     total cpu time spent up to now is        6.8 secs

     Computing kpt #:     6  of    91
     total cpu time spent up to now is        7.4 secs

     Computing kpt #:     7  of    91
     total cpu time spent up to now is        8.0 secs

     Computing kpt #:     8  of    91
     total cpu time spent up to now is        8.6 secs

     Computing kpt #:     9  of    91
     total cpu time spent up to now is        9.3 secs

     Computing kpt #:    10  of    91
     total cpu time spent up to now is       10.0 secs

     Computing kpt #:    11  of    91
     total cpu time spent up to now is       10.7 secs

     Computing kpt #:    12  of    91
     total cpu time spent up to now is       11.3 secs

     Computing kpt #:    13  of    91
     total cpu time spent up to now is       11.9 secs

     Computing kpt #:    14  of    91
     total cpu time spent up to now is       12.5 secs

     Computing kpt #:    15  of    91
     total cpu time spent up to now is       13.1 secs

     Computing kpt #:    16  of    91
     total cpu time spent up to now is       13.7 secs

     Computing kpt #:    17  of    91
     total cpu time spent up to now is       14.4 secs

     Computing kpt #:    18  of    91
     total cpu time spent up to now is       15.0 secs

     Computing kpt #:    19  of    91
     total cpu time spent up to now is       15.7 secs

     Computing kpt #:    20  of    91
     total cpu time spent up to now is       16.5 secs

     Computing kpt #:    21  of    91
     total cpu time spent up to now is       17.2 secs

     Computing kpt #:    22  of    91
     total cpu time spent up to now is       18.0 secs

     Computing kpt #:    23  of    91
     total cpu time spent up to now is       18.8 secs

     Computing kpt #:    24  of    91
     total cpu time spent up to now is       19.7 secs

     Computing kpt #:    25  of    91
     total cpu time spent up to now is       20.7 secs

     Computing kpt #:    26  of    91
     c_bands:  2 eigenvalues not converged
     total cpu time spent up to now is       21.6 secs

     Computing kpt #:    27  of    91
     total cpu time spent up to now is       22.5 secs

     Computing kpt #:    28  of    91
     total cpu time spent up to now is       23.2 secs

     Computing kpt #:    29  of    91
     total cpu time spent up to now is       24.1 secs

     Computing kpt #:    30  of    91
     total cpu time spent up to now is       24.9 secs

     Computing kpt #:    31  of    91
     c_bands:  1 eigenvalues not converged
     total cpu time spent up to now is       25.9 secs

     Computing kpt #:    32  of    91
     c_bands:  1 eigenvalues not converged
     total cpu time spent up to now is       26.8 secs

     Computing kpt #:    33  of    91
     total cpu time spent up to now is       27.8 secs

     Computing kpt #:    34  of    91
     total cpu time spent up to now is       28.7 secs

     Computing kpt #:    35  of    91
     total cpu time spent up to now is       29.5 secs

     Computing kpt #:    36  of    91
     total cpu time spent up to now is       30.4 secs

     Computing kpt #:    37  of    91
     total cpu time spent up to now is       31.2 secs

     Computing kpt #:    38  of    91
     total cpu time spent up to now is       32.0 secs

     Computing kpt #:    39  of    91
     total cpu time spent up to now is       32.7 secs

     Computing kpt #:    40  of    91
     total cpu time spent up to now is       33.5 secs

     Computing kpt #:    41  of    91
     total cpu time spent up to now is       34.3 secs

     Computing kpt #:    42  of    91
     total cpu time spent up to now is       35.1 secs

     Computing kpt #:    43  of    91
     c_bands:  1 eigenvalues not converged
     total cpu time spent up to now is       36.0 secs

     Computing kpt #:    44  of    91
     c_bands:  1 eigenvalues not converged
     total cpu time spent up to now is       36.9 secs

     Computing kpt #:    45  of    91
     total cpu time spent up to now is       37.8 secs

     Computing kpt #:    46  of    91
     total cpu time spent up to now is       38.6 secs

     Computing kpt #:    47  of    91
     total cpu time spent up to now is       39.3 secs

     Computing kpt #:    48  of    91
     total cpu time spent up to now is       40.0 secs

     Computing kpt #:    49  of    91
     total cpu time spent up to now is       40.8 secs

     Computing kpt #:    50  of    91
     total cpu time spent up to now is       41.6 secs

     Computing kpt #:    51  of    91
     total cpu time spent up to now is       42.3 secs

     Computing kpt #:    52  of    91
     total cpu time spent up to now is       43.0 secs

     Computing kpt #:    53  of    91
     total cpu time spent up to now is       43.8 secs

     Computing kpt #:    54  of    91
     total cpu time spent up to now is       44.6 secs

     Computing kpt #:    55  of    91
     total cpu time spent up to now is       45.3 secs

     Computing kpt #:    56  of    91
     total cpu time spent up to now is       46.1 secs

     Computing kpt #:    57  of    91
     total cpu time spent up to now is       46.8 secs

     Computing kpt #:    58  of    91
     total cpu time spent up to now is       47.6 secs

     Computing kpt #:    59  of    91
     total cpu time spent up to now is       48.4 secs

     Computing kpt #:    60  of    91
     total cpu time spent up to now is       49.2 secs

     Computing kpt #:    61  of    91
     total cpu time spent up to now is       50.0 secs

     Computing kpt #:    62  of    91
     total cpu time spent up to now is       50.7 secs

     Computing kpt #:    63  of    91
     total cpu time spent up to now is       51.4 secs

     Computing kpt #:    64  of    91
     total cpu time spent up to now is       52.2 secs

     Computing kpt #:    65  of    91
     total cpu time spent up to now is       52.9 secs

     Computing kpt #:    66  of    91
     total cpu time spent up to now is       53.6 secs

     Computing kpt #:    67  of    91
     total cpu time spent up to now is       54.3 secs

     Computing kpt #:    68  of    91
     total cpu time spent up to now is       55.0 secs

     Computing kpt #:    69  of    91
     total cpu time spent up to now is       55.7 secs

     Computing kpt #:    70  of    91
     total cpu time spent up to now is       56.4 secs

     Computing kpt #:    71  of    91
     total cpu time spent up to now is       57.1 secs

     Computing kpt #:    72  of    91
     total cpu time spent up to now is       57.8 secs

     Computing kpt #:    73  of    91
     total cpu time spent up to now is       58.4 secs

     Computing kpt #:    74  of    91
     total cpu time spent up to now is       59.1 secs

     Computing kpt #:    75  of    91
     total cpu time spent up to now is       59.9 secs

     Computing kpt #:    76  of    91
     total cpu time spent up to now is       60.5 secs

     Computing kpt #:    77  of    91
     total cpu time spent up to now is       61.2 secs

     Computing kpt #:    78  of    91
     total cpu time spent up to now is       61.9 secs

     Computing kpt #:    79  of    91
     total cpu time spent up to now is       62.6 secs

     Computing kpt #:    80  of    91
     total cpu time spent up to now is       63.2 secs

     Computing kpt #:    81  of    91
     total cpu time spent up to now is       63.8 secs

     Computing kpt #:    82  of    91
     total cpu time spent up to now is       64.5 secs

     Computing kpt #:    83  of    91
     total cpu time spent up to now is       65.1 secs

     Computing kpt #:    84  of    91
     total cpu time spent up to now is       65.7 secs

     Computing kpt #:    85  of    91
     total cpu time spent up to now is       66.3 secs

     Computing kpt #:    86  of    91
     total cpu time spent up to now is       66.9 secs

     Computing kpt #:    87  of    91
     total cpu time spent up to now is       67.6 secs

     Computing kpt #:    88  of    91
     total cpu time spent up to now is       68.2 secs

     Computing kpt #:    89  of    91
     total cpu time spent up to now is       68.8 secs

     Computing kpt #:    90  of    91
     total cpu time spent up to now is       69.4 secs

     Computing kpt #:    91  of    91
     total cpu time spent up to now is       70.0 secs

     ethr =  5.56E-11,  avg # of iterations = 70.3

     total cpu time spent up to now is       70.0 secs

     End of band structure calculation

          k = 0.0000 0.0000 0.0000 (  9961 PWs)   bands (ev):

   -22.5330 -22.4656  -9.4760  -7.4123  -6.5959  -6.5879  -6.5746  -6.5666
    -4.4163  -0.2912   1.6598   2.4342   2.6961   3.2186   3.4713   4.4271
     5.0731   6.4421   6.5265   8.1205   8.4957   8.5159   9.0006   9.8596
     9.8810  10.9999  11.0045  12.0986  12.1256  12.8892

          k = 0.0193 0.0111 0.0000 (  9971 PWs)   bands (ev):

   -22.5300 -22.4628  -9.4712  -7.4089  -6.6099  -6.5957  -6.5876  -6.5742
    -4.4059  -0.2724   1.6693   2.4419   2.7054   3.2292   3.4788   4.4359
     5.0787   6.4487   6.5298   8.1290   8.4145   8.4982   9.0271   9.8384
     9.8779  11.0118  11.0475  12.0495  12.1025  12.9238

          k = 0.0385 0.0222 0.0000 (  9987 PWs)   bands (ev):

   -22.5213 -22.4543  -9.4567  -7.3989  -6.6650  -6.6398  -6.6044  -6.5828
    -4.3759  -0.2170   1.6973   2.4649   2.7332   3.2610   3.5014   4.4623
     5.0956   6.4678   6.5397   8.1543   8.1794   8.4852   9.0761   9.7394
     9.9079  11.0373  11.1557  11.8958  12.0827  13.0087

          k = 0.0578 0.0333 0.0000 (  9981 PWs)   bands (ev):

   -22.5067 -22.4403  -9.4329  -7.3825  -6.7530  -6.7248  -6.6179  -6.5960
    -4.3293  -0.1273   1.7433   2.5031   2.7792   3.3135   3.5388   4.5060
     5.1234   6.4973   6.5563   7.8685   8.1962   8.4575   9.1258   9.5846
     9.9601  11.0788  11.2341  11.7552  12.0503  13.1236

          k = 0.0770 0.0444 0.0000 (  9987 PWs)   bands (ev):

   -22.4866 -22.4209  -9.4004  -7.3607  -6.8673  -6.8373  -6.6370  -6.6145
    -4.2700  -0.0068   1.8061   2.5560   2.8430   3.3863   3.5909   4.5664
     5.1617   6.5308   6.5801   7.5246   8.2544   8.4044   9.1772   9.3899
    10.0324  11.1359  11.1609  11.7430  12.0126  13.2630

          k = 0.0963 0.0554 0.0000 (  9988 PWs)   bands (ev):

   -22.4610 -22.3963  -9.3600  -7.3361  -7.0011  -6.9703  -6.6618  -6.6385
    -4.2019   0.1401   1.8844   2.6230   2.9240   3.4782   3.6574   4.6425
     5.2098   6.5455   6.6116   7.1918   8.3141   8.3282   9.1702   9.2350
    10.1233  10.9893  11.2083  11.7620  12.0209  13.4208

          k = 0.1155 0.0665 0.0000 ( 10001 PWs)   bands (ev):

   -22.4304 -22.3668  -9.3130  -7.3206  -7.1477  -7.1073  -6.6927  -6.6682
    -4.1279   0.3093   1.9769   2.7035   3.0217   3.5876   3.7380   4.7320
     5.2671   6.4555   6.6513   6.9701   8.1779   8.4154   8.9401   9.3026
    10.2310  10.8133  11.2953  11.7015  12.1101  13.5859

          k = 0.1348 0.0776 0.0000 ( 10015 PWs)   bands (ev):

   -22.3949 -22.3327  -9.2615  -7.3770  -7.3003  -7.1810  -6.7299  -6.7040
    -4.0505   0.4965   2.0822   2.7963   3.1356   3.7121   3.8321   4.8294
     5.3327   6.1915   6.7000   6.9393   7.9972   8.5024   8.7236   9.3801
    10.3528  10.6534  11.3967  11.6178  12.2245  13.7478

          k = 0.1540 0.0887 0.0000 ( 10027 PWs)   bands (ev):

   -22.3549 -22.2943  -9.2084  -7.5306  -7.4518  -7.1618  -6.7737  -6.7459
    -3.9711   0.6980   2.1992   2.9001   3.2650   3.8475   3.9395   4.9193
     5.4061   5.8788   6.7581   6.9864   7.7898   8.4327   8.6859   9.4639
    10.4850  10.5010  11.5119  11.5616  12.3401  13.9028

          k = 0.1733 0.0998 0.0000 ( 10035 PWs)   bands (ev):

   -22.3110 -22.2520  -9.1582  -7.7115  -7.5943  -7.1162  -6.8244  -6.7941
    -3.8909   0.9106   2.3264   3.0132   3.4093   3.9852   4.0597   4.9523
     5.4867   5.6360   6.8253   7.0150   7.6058   8.2330   8.8082   9.5414
    10.3508  10.6228  11.5606  11.6402  12.4535  14.0541

          k = 0.1925 0.1109 0.0000 ( 10059 PWs)   bands (ev):

   -22.2636 -22.2064  -9.1172  -7.8991  -7.7186  -7.0619  -6.8823  -6.8483
    -3.8105   1.1316   2.4625   3.1337   3.5669   4.1002   4.1926   4.8535
     5.5747   5.5792   6.9000   6.9234   7.5467   8.0440   8.9579   9.5785
    10.2310  10.7599  11.6215  11.7808  12.5645  13.7796

          k = 0.2118 0.1220 0.0000 ( 10045 PWs)   bands (ev):

   -22.2132 -22.1579  -9.0938  -8.0871  -7.8141  -7.0051  -6.9475  -6.9064
    -3.7303   1.3584   2.6053   3.2592   3.7310   4.1157   4.3381   4.7415
     5.6706   5.6773   6.7047   6.9762   7.6277   7.8865   9.1248   9.5177
    10.2048  10.8885  11.7363  11.9329  12.6726  13.3903

          k = 0.2310 0.1331 0.0000 ( 10065 PWs)   bands (ev):

   -22.1604 -22.1072  -9.0964  -8.2715  -7.8704  -7.0203  -6.9940  -6.9220
    -3.6504   1.5888   2.7508   3.3873   3.8151   4.0360   4.4966   4.7918
     5.7754   5.8358   6.4453   7.0408   7.7752   7.7796   9.3069   9.3569
    10.2839  11.0000  11.8927  12.0942  12.7765  13.0007

          k = 0.2503 0.1442 0.0000 ( 10073 PWs)   bands (ev):

   -22.1059 -22.0549  -9.1293  -8.4495  -7.8817  -7.1008  -7.0627  -6.8621
    -3.5708   1.8204   2.8878   3.5161   3.5991   4.1805   4.6690   4.9460
     5.8897   5.9824   6.2262   7.0727   7.7479   7.9555   9.1496   9.5032
    10.4230  11.0855  12.0787  12.2458  12.6384  12.8733

          k = 0.2695 0.1553 0.0000 ( 10077 PWs)   bands (ev):

   -22.0503 -22.0015  -9.1893  -8.6184  -7.8501  -7.1890  -7.1446  -6.7943
    -3.4914   2.0506   2.9619   3.3664   3.6447   4.3923   4.8562   5.1327
     5.8686   6.0132   6.3095   7.0635   7.8035   8.1568   8.9315   9.7123
    10.5932  11.1379  12.1500  12.2840  12.5489  12.9587

          k = 0.2888 0.1663 0.0000 ( 10097 PWs)   bands (ev):

   -21.9943 -21.9478  -9.2678  -8.7762  -7.7837  -7.2847  -7.2342  -6.7249
    -3.4118   2.2760   2.8082   3.3472   3.7739   4.6222   5.0591   5.2988
     5.7001   6.1425   6.5322   7.0356   7.9287   8.3680   8.7253   9.9313
    10.7822  11.1523  11.8135  12.4978  12.7339  13.0257

          k = 0.3080 0.1774 0.0000 ( 10101 PWs)   bands (ev):

   -21.9387 -21.8944  -9.3547  -8.9210  -7.6924  -7.3876  -7.3308  -6.6555
    -3.3315   2.4927   2.5196   3.4523   3.9069   4.8558   5.2780   5.3106
     5.7380   6.2684   6.7806   7.0222   8.0996   8.4540   8.6725  10.1520
    10.9830  11.1236  11.4874  12.7064  12.9579  13.0661

          k = 0.3273 0.1885 0.0000 ( 10111 PWs)   bands (ev):

   -21.8842 -21.8421  -9.4418  -9.0512  -7.5851  -7.4969  -7.4338  -6.5871
    -3.2499   2.2117   2.6960   3.5560   4.0493   5.0198   5.2967   5.5119
     5.9475   6.3744   7.0450   7.0543   8.2923   8.3005   8.8994  10.3444
    11.0422  11.1891  11.2369  12.8734  13.0893  13.1956

          k = 0.3465 0.1996 0.0000 ( 10119 PWs)   bands (ev):

   -21.8314 -21.7914  -9.5228  -9.1653  -7.6154  -7.5428  -7.4652  -6.5207
    -3.1659   1.9062   2.8810   3.6179   4.2073   5.0180   5.5023   5.7572
     6.2008   6.4467   7.1532   7.3220   8.1271   8.5212   9.1656  10.3933
    10.9999  11.0959  11.3910  12.8932  13.1732  13.3959

          k = 0.3658 0.2107 0.0000 ( 10127 PWs)   bands (ev):

   -21.7811 -21.7432  -9.5936  -9.2621  -7.7376  -7.6572  -7.3430  -6.4573
    -3.0785   1.6088   3.0448   3.6160   4.3864   5.0310   5.7880   6.0015
     6.4722   6.4991   7.3170   7.6052   7.9878   8.7512   9.4491  10.2328
    10.9578  11.1818  11.5700  12.7995  13.2149  13.2575

          k = 0.3850 0.2218 0.0000 ( 10133 PWs)   bands (ev):

   -21.7339 -21.6979  -9.6508  -9.3406  -7.8654  -7.7763  -7.2202  -6.3977
    -2.9865   1.3223   3.1870   3.5507   4.5887   5.1143   6.0997   6.2038
     6.5877   6.7539   7.5263   7.7937   7.9808   8.9693   9.7470  10.0310
    10.8244  11.4412  11.6870  12.6997  12.9611  12.9733

          k = 0.4043 0.2329 0.0000 ( 10143 PWs)   bands (ev):

   -21.6903 -21.6561  -9.6924  -9.4000  -7.9977  -7.8994  -7.1010  -6.3426
    -2.8887   1.0483   3.3102   3.4417   4.8125   5.2547   6.3016   6.4285
     6.7863   7.0369   7.7395   7.7614   8.2630   9.1211   9.9174  10.0573
    10.6686  11.6872  11.7321  12.5700  12.6661  12.7464

          k = 0.4235 0.2440 0.0000 ( 10141 PWs)   bands (ev):

   -21.6509 -21.6183  -9.7168  -9.4396  -8.1337  -8.0258  -6.9887  -6.2928
    -2.7841   0.7884   3.3107   3.4187   5.0532   5.4298   6.3288   6.7695
     7.0646   7.2910   7.7207   8.0022   8.5890   9.1371   9.9918  10.3765
    10.4932  11.5665  12.0006  12.2545  12.4195  12.7473

          k = 0.4428 0.2551 0.0000 ( 10133 PWs)   bands (ev):

   -21.6159 -21.5848  -9.7229  -9.4591  -8.2725  -8.1546  -6.8863  -6.2487
    -2.6726   0.5443   3.1725   3.5167   5.3040   5.6211   6.3341   7.1071
     7.3688   7.4368   7.8584   8.2159   8.9310   9.0952  10.1973  10.3205
    10.6933  11.3878  11.9306  11.9903  12.3925  12.5206

          k = 0.4620 0.2661 0.0000 ( 10127 PWs)   bands (ev):

   -21.5858 -21.5559  -9.7101  -9.4584  -8.4130  -8.2849  -6.7962  -6.2107
    -2.5549   0.3181   3.0364   3.6071   5.5567   5.8140   6.3336   7.3268
     7.6044   7.6620   8.1385   8.3587   9.1451   9.2861  10.0812  10.5209
    10.9223  11.2722  11.6284  11.7623  12.1443  12.1909

          k = 0.4813 0.2772 0.0000 ( 10125 PWs)   bands (ev):

   -21.5607 -21.5318  -9.6780  -9.4375  -8.5543  -8.4158  -6.7199  -6.1791
    -2.4335   0.1129   2.9084   3.6910   5.8011   5.9957   6.3320   7.3663
     7.8740   7.9493   8.4673   8.4809   9.3295   9.6530   9.8850  10.8174
    10.8285  11.2825  11.5287  11.5383  11.8500  11.8688

          k = 0.5005 0.2883 0.0000 ( 10125 PWs)   bands (ev):

   -21.5406 -21.5125  -9.6269  -9.3967  -8.6953  -8.5466  -6.6586  -6.1538
    -2.3132  -0.0670   2.7929   3.7678   6.0243   6.1537   6.3311   7.3858
     7.9380   8.3353   8.7149   8.8183   9.5049   9.7932  10.0281  10.6298
    11.0179  11.0304  11.3568  11.5323  11.5968  11.6167

          k = 0.5198 0.2994 0.0000 ( 10121 PWs)   bands (ev):

   -21.5254 -21.4979  -9.5571  -9.3367  -8.8351  -8.6762  -6.6125  -6.1348
    -2.2021  -0.2158   2.6940   3.8349   6.2091   6.2778   6.3331   7.4166
     7.9295   8.7293   9.0126   9.1862   9.4365  10.0291  10.3525  10.4808
    10.7878  10.9199  11.2031  11.2415  11.3065  11.6430

          k = 0.5390 0.3105 0.0000 ( 10105 PWs)   bands (ev):

   -21.5150 -21.4879  -9.4694  -9.2583  -8.9724  -8.8038  -6.5810  -6.1217
    -2.1108  -0.3263   2.6160   3.8886   6.3111   6.3627   6.3673   7.4561
     7.9250   9.1139   9.1180   9.5504   9.5680  10.2314  10.3340  10.5041
    10.7283  10.8515  10.9631  10.9898  11.0505  11.6042

          k = 0.5583 0.3216 0.0000 ( 10113 PWs)   bands (ev):

   -21.5090 -21.4822  -9.3659  -9.1627  -9.1055  -8.9286  -6.5632  -6.1143
    -2.0510  -0.3922   2.5644   3.9242   6.3205   6.4096   6.4361   7.4915
     7.9383   9.0354   9.4617   9.8997   9.9127  10.1475  10.3019  10.4117
    10.6248  10.7006  10.7696  10.9242  11.2809  11.4184

          k = 0.5775 0.3327 0.0000 ( 10117 PWs)   bands (ev):

   -21.5072 -21.4804  -9.2721  -9.2090  -9.0599  -9.0408  -6.5577  -6.1120
    -2.0308  -0.4125   2.5455   3.9372   6.3214   6.4237   6.4593   7.5069
     7.9489   8.9958   9.6256  10.0239  10.1028  10.1709  10.2945  10.4406
    10.4872  10.5167  10.5791  11.0602  11.3121  11.6261

          k = 0.5775 0.3216 0.0000 ( 10121 PWs)   bands (ev):

   -21.5076 -21.4808  -9.3116  -9.1671  -9.1102  -8.9882  -6.5590  -6.1125
    -2.0353  -0.4086   2.5508   3.9335   6.3212   6.4205   6.4540   7.5019
     7.9452   9.0067   9.5975   9.9569  10.1158  10.1759  10.2704  10.3605
    10.4436  10.5897  10.7340  11.0268  11.3076  11.5502

          k = 0.5775 0.3105 0.0000 ( 10119 PWs)   bands (ev):

   -21.5088 -21.4820  -9.3705  -9.1676  -9.1012  -8.9240  -6.5626  -6.1140
    -2.0489  -0.3973   2.5671   3.9230   6.3199   6.4113   6.4399   7.4883
     7.9361   9.0348   9.5358   9.8627  10.0343  10.1862  10.1934  10.2942
    10.4525  10.7083  10.9632  10.9840  11.2799  11.4451

          k = 0.5775 0.2994 0.0000 ( 10103 PWs)   bands (ev):

   -21.5108 -21.4839  -9.4302  -9.2239  -9.0299  -8.8565  -6.5684  -6.1165
    -2.0704  -0.3809   2.5951   3.9056   6.3159   6.3966   6.4191   7.4662
     7.9239   9.0750   9.4603   9.7682   9.9566  10.0983  10.1035  10.2148
    10.5914  10.7365  10.9952  11.2011  11.2819  11.3424

          k = 0.5775 0.2883 0.0000 ( 10107 PWs)   bands (ev):

   -21.5136 -21.4866  -9.4891  -9.2790  -8.9552  -8.7861  -6.5761  -6.1199
    -2.0985  -0.3617   2.6356   3.8812   6.3051   6.3768   6.3962   7.4358
     7.9116   9.1199   9.3783   9.6754   9.8892   9.9982  10.0127  10.1301
    10.6819  10.7599  10.9898  11.2423  11.3519  11.3831

          k = 0.5775 0.2772 0.0000 ( 10111 PWs)   bands (ev):

   -21.5169 -21.4898  -9.5467  -9.3326  -8.8776  -8.7131  -6.5855  -6.1241
    -2.1317  -0.3419   2.6893   3.8502   6.2809   6.3524   6.3784   7.3979
     7.9021   9.1609   9.2930   9.5848   9.8370   9.8983   9.9247  10.0480
    10.6072  10.9287  10.9397  11.1452  11.2970  11.5497

          k = 0.5775 0.2661 0.0000 ( 10119 PWs)   bands (ev):

   -21.5209 -21.4936  -9.6028  -9.3848  -8.7976  -8.6379  -6.5963  -6.1289
    -2.1688  -0.3234   2.7566   3.8127   6.2403   6.3235   6.3692   7.3536
     7.8972   9.1885   9.2064   9.4967   9.8001   9.8006   9.8460   9.9699
    10.5313  10.8751  11.0496  11.0549  11.2822  11.7258

          k = 0.5775 0.2551 0.0000 ( 10117 PWs)   bands (ev):

   -21.5253 -21.4979  -9.6572  -9.4354  -8.7155  -8.5607  -6.6085  -6.1344
    -2.2087  -0.3079   2.8377   3.7692   6.1869   6.2906   6.3656   7.3039
     7.8978   9.1183   9.1974   9.4111   9.7054   9.7443   9.8145   9.8961
    10.4604  10.8077  10.9586  11.0534  11.4006  11.8656

          k = 0.5775 0.2440 0.0000 ( 10125 PWs)   bands (ev):

   -21.5302 -21.5025  -9.7099  -9.4843  -8.6318  -8.4820  -6.6216  -6.1404
    -2.2504  -0.2963   2.9324   3.7203   6.1249   6.2537   6.3644   7.2503
     7.9037   9.0310   9.1858   9.3282   9.6132   9.6702   9.8255   9.8265
    10.3991  10.7413  10.8690  10.9974  11.5827  11.9093

          k = 0.5775 0.2329 0.0000 ( 10127 PWs)   bands (ev):

   -21.5354 -21.5076  -9.7608  -9.5315  -8.5467  -8.4020  -6.6356  -6.1468
    -2.2930  -0.2894   3.0404   3.6664   6.0568   6.2132   6.3640   7.1938
     7.9139   8.9445   9.1591   9.2481   9.5243   9.5983   9.7607   9.8488
    10.3526  10.6775  10.7819  10.9337  11.7803  11.8763

          k = 0.5775 0.2218 0.0000 ( 10121 PWs)   bands (ev):

   -21.5409 -21.5129  -9.8098  -9.5770  -8.4606  -8.3212  -6.6503  -6.1536
    -2.3360  -0.2875   3.1611   3.6081   5.9846   6.1694   6.3639   7.1358
     7.9272   8.8595   9.1237   9.1710   9.4386   9.5312   9.6987   9.8683
    10.3277  10.6172  10.6972  10.8707  11.8182  11.9831

          k = 0.5775 0.2107 0.0000 ( 10129 PWs)   bands (ev):

   -21.5466 -21.5184  -9.8568  -9.6206  -8.3740  -8.2399  -6.6654  -6.1606
    -2.3787  -0.2906   3.2936   3.5462   5.9100   6.1226   6.3634   7.0774
     7.9417   8.7764   9.0845   9.0970   9.3564   9.4697   9.6400   9.8729
    10.3299  10.5609  10.6150  10.8104  11.7537  12.1725

          k = 0.5775 0.1996 0.0000 ( 10129 PWs)   bands (ev):

   -21.5525 -21.5240  -9.9017  -9.6623  -8.2872  -8.1586  -6.6808  -6.1678
    -2.4207  -0.2984   3.4369   3.4812   5.8342   6.0734   6.3626   7.0195
     7.9556   8.6956   9.0262   9.0447   9.2777   9.4144   9.5845   9.8597
    10.3583  10.5091  10.5354  10.7534  11.6888  12.1726

          k = 0.5775 0.1885 0.0000 ( 10133 PWs)   bands (ev):

   -21.5584 -21.5298  -9.9446  -9.7020  -8.2007  -8.0777  -6.6964  -6.1751
    -2.4616  -0.3107   3.4138   3.5900   5.7585   6.0223   6.3614   6.9630
     7.9674   8.6175   8.9587   9.0055   9.2027   9.3657   9.5320   9.8339
    10.4057  10.4581  10.4621  10.6996  11.6260  12.0914

          k = 0.5775 0.1774 0.0000 ( 10105 PWs)   bands (ev):

   -21.5644 -21.5355  -9.9853  -9.7398  -8.1149  -7.9976  -6.7120  -6.1824
    -2.5012  -0.3268   3.3447   3.7513   5.6838   5.9701   6.3596   6.9087
     7.9756   8.5421   8.8947   8.9677   9.1315   9.3237   9.4822   9.8021
    10.3833  10.4200  10.4641  10.6489  11.5666  12.0048

          k = 0.5775 0.1663 0.0000 ( 10101 PWs)   bands (ev):

   -21.5704 -21.5413 -10.0238  -9.7755  -8.0304  -7.9188  -6.7275  -6.1897
    -2.5393  -0.3462   3.2746   3.9196   5.6111   5.9180   6.3574   6.8571
     7.9795   8.4697   8.8342   8.9313   9.0639   9.2882   9.4351   9.7693
    10.3107  10.3833  10.5279  10.6010  11.5117  11.9154

          k = 0.5775 0.1553 0.0000 ( 10107 PWs)   bands (ev):

   -21.5762 -21.5469 -10.0600  -9.8091  -7.9476  -7.8418  -6.7427  -6.1968
    -2.5755  -0.3684   3.2042   4.0929   5.5411   5.8673   6.3549   6.8087
     7.9788   8.4003   8.7773   8.8960   9.0002   9.2583   9.3904   9.7385
    10.2400  10.3521  10.5555  10.5933  11.4623  11.8233

          k = 0.5775 0.1442 0.0000 ( 10123 PWs)   bands (ev):

   -21.5819 -21.5524 -10.0939  -9.8406  -7.8669  -7.7671  -6.7576  -6.2037
    -2.6097  -0.3926   3.1342   4.2692   5.4744   5.8198   6.3520   6.7637
     7.9738   8.3338   8.7240   8.8617   8.9401   9.2329   9.3480   9.7112
    10.1709  10.3265  10.5121  10.6577  11.4195  11.7284

          k = 0.5775 0.1331 0.0000 ( 10133 PWs)   bands (ev):

   -21.5874 -21.5577 -10.1255  -9.8699  -7.7890  -7.6952  -6.7720  -6.2104
    -2.6418  -0.4182   3.0654   4.4455   5.4115   5.7780   6.3488   6.7224
     7.9651   8.2699   8.6745   8.8286   8.8837   9.2106   9.3079   9.6882
    10.1028  10.3064  10.4704  10.7190  11.3848  11.6310

          k = 0.5775 0.1220 0.0000 ( 10125 PWs)   bands (ev):

   -21.5926 -21.5627 -10.1547  -9.8970  -7.7144  -7.6265  -6.7859  -6.2168
    -2.6717  -0.4446   2.9986   4.6175   5.3527   5.7460   6.3456   6.6850
     7.9535   8.2085   8.6286   8.7969   8.8309   9.1903   9.2698   9.6693
    10.0353  10.2917  10.4302  10.7746  11.3602  11.5319

          k = 0.5775 0.1109 0.0000 ( 10145 PWs)   bands (ev):

   -21.5976 -21.5675 -10.1814  -9.9218  -7.6435  -7.5617  -6.7992  -6.2229
    -2.6992  -0.4711   2.9344   4.7788   5.2985   5.7295   6.3422   6.6515
     7.9400   8.1490   8.5865   8.7669   8.7816   9.1711   9.2338   9.6541
     9.9677  10.2819  10.3911  10.8219  11.3480  11.4326

          k = 0.5775 0.0998 0.0000 ( 10127 PWs)   bands (ev):

   -21.6021 -21.5719 -10.2057  -9.9444  -7.5769  -7.5012  -6.8118  -6.2284
    -2.7244  -0.4973   2.8736   4.9194   5.2490   5.7377   6.3389   6.6223
     7.9253   8.0907   8.5482   8.7356   8.7388   9.1526   9.1995   9.6419
     9.8997  10.2763  10.3533  10.8580  11.3355  11.3504

          k = 0.5775 0.0887 0.0000 ( 10127 PWs)   bands (ev):

   -21.6064 -21.5760 -10.2276  -9.9646  -7.5152  -7.4454  -6.8237  -6.2336
    -2.7470  -0.5225   2.8170   5.0275   5.2044   5.7811   6.3357   6.5978
     7.9103   8.0329   8.5136   8.6930   8.7131   9.1350   9.1669   9.6320
     9.8312  10.2744  10.3169  10.8817  11.2433  11.3679

          k = 0.5775 0.0776 0.0000 ( 10116 PWs)   bands (ev):

   -21.6102 -21.5797 -10.2469  -9.9826  -7.4588  -7.3950  -6.8348  -6.2382
    -2.7671  -0.5462   2.7652   5.0962   5.1648   5.8648   6.3326   6.5787
     7.8957   7.9744   8.4828   8.6535   8.6898   9.1183   9.1358   9.6237
     9.7626  10.2750  10.2824  10.8940  11.1586  11.3986

          k = 0.5775 0.0665 0.0000 ( 10112 PWs)   bands (ev):

   -21.6135 -21.5829 -10.2637  -9.9982  -7.4084  -7.3502  -6.8449  -6.2423
    -2.7846  -0.5678   2.7188   5.1302   5.1306   5.9805   6.3298   6.5667
     7.8818   7.9141   8.4557   8.6173   8.6694   9.1029   9.1062   9.6167
     9.6955  10.2504  10.2775  10.8976  11.0837  11.4381

          k = 0.5775 0.0554 0.0000 ( 10124 PWs)   bands (ev):

   -21.6164 -21.5857 -10.2779 -10.0114  -7.3643  -7.3116  -6.8541  -6.2458
    -2.7995  -0.5870   2.6785   5.1013   5.1420   6.1099   6.3274   6.5652
     7.8497   7.8704   8.4324   8.5845   8.6519   9.0778   9.0896   9.6108
     9.6322  10.2218  10.2810  10.8960  11.0201  11.4818

          k = 0.5775 0.0444 0.0000 ( 10124 PWs)   bands (ev):

   -21.6188 -21.5880 -10.2896 -10.0222  -7.3272  -7.2794  -6.8621  -6.2488
    -2.8117  -0.6033   2.6448   5.0773   5.1421   6.2306   6.3253   6.5824
     7.7830   7.8596   8.4129   8.5559   8.6374   9.0518   9.0780   9.5756
     9.6059  10.1973  10.2847  10.8918  10.9686  11.5252

          k = 0.5775 0.0333 0.0000 ( 10132 PWs)   bands (ev):

   -21.6207 -21.5898 -10.2987 -10.0306  -7.2976  -7.2541  -6.8687  -6.2511
    -2.8213  -0.6164   2.6181   5.0587   5.1375   6.3183   6.3236   6.6296
     7.7138   7.8511   8.3972   8.5320   8.6260   9.0290   9.0688   9.5288
     9.6020  10.1777  10.2881  10.8871  10.9292  11.5644

          k = 0.5775 0.0222 0.0000 ( 10134 PWs)   bands (ev):

   -21.6220 -21.5911 -10.3051 -10.0367  -7.2760  -7.2358  -6.8737  -6.2527
    -2.8281  -0.6259   2.5987   5.0454   5.1321   6.3223   6.3643   6.7024
     7.6477   7.8449   8.3857   8.5140   8.6179   9.0110   9.0620   9.4941
     9.5991  10.1633  10.2909  10.8829  10.9016  11.5965

          k = 0.5775 0.0111 0.0000 ( 10130 PWs)   bands (ev):

   -21.6228 -21.5919 -10.3091 -10.0403  -7.2628  -7.2248  -6.8768  -6.2537
    -2.8322  -0.6317   2.5870   5.0374   5.1282   6.3216   6.3828   6.7690
     7.5962   7.8412   8.3786   8.5028   8.6130   8.9994   9.0579   9.4729
     9.5974  10.1546  10.2927  10.8801  10.8853  11.6185

          k = 0.5775 0.0000 0.0000 ( 10138 PWs)   bands (ev):

   -21.6231 -21.5922 -10.3104 -10.0415  -7.2584  -7.2211  -6.8779  -6.2541
    -2.8336  -0.6336   2.5831   5.0348   5.1267   6.3214   6.3876   6.7960
     7.5760   7.8399   8.3762   8.4989   8.6114   8.9954   9.0565   9.4657
     9.5968  10.1517  10.2933  10.8789  10.8802  11.6266

          k = 0.5583 0.0000 0.0000 ( 10144 PWs)   bands (ev):

   -21.6260 -21.5949 -10.3033 -10.0339  -7.2568  -7.2195  -6.8876  -6.2577
    -2.8413  -0.6090   2.5836   5.0239   5.1277   6.3043   6.3367   6.8003
     7.5967   7.7984   8.1036   8.5405   8.7372   8.9519   9.1105   9.5360
     9.6616  10.1392  10.2694  10.8849  10.9389  11.6268

          k = 0.5390 0.0000 0.0000 ( 10134 PWs)   bands (ev):

   -21.6345 -21.6030 -10.2822 -10.0110  -7.2518  -7.2146  -6.9163  -6.2687
    -2.8636  -0.5366   2.5847   4.9911   5.1288   6.2077   6.2569   6.8133
     7.5607   7.6789   7.8708   8.4012   8.6647   9.2011   9.2130   9.5935
     9.8099  10.1916  10.2322  10.9133  11.0564  11.6271

          k = 0.5198 0.0000 0.0000 ( 10120 PWs)   bands (ev):

   -21.6485 -21.6165 -10.2473  -9.9730  -7.2436  -7.2066  -6.9629  -6.2867
    -2.8981  -0.4199   2.5855   4.9357   5.1238   6.0449   6.1881   6.8349
     7.3167   7.4980   7.7982   8.2565   8.5466   9.3012   9.4033   9.6947
     9.9229  10.2901  10.3561  10.9858  11.1259  11.6273

          k = 0.5005 0.0000 0.0000 ( 10118 PWs)   bands (ev):

   -21.6678 -21.6349 -10.1991  -9.9202  -7.2323  -7.1955  -7.0255  -6.3116
    -2.9416  -0.2639   2.5846   4.8576   5.0997   5.8869   6.1088   6.8649
     7.0118   7.2801   7.6756   8.1152   8.5032   9.3244   9.3624   9.9747
    10.0367  10.4805  10.5173  11.1186  11.1481  11.6266

          k = 0.4813 0.0000 0.0000 ( 10130 PWs)   bands (ev):

   -21.6921 -21.6582 -10.1382  -9.8531  -7.2178  -7.1813  -7.1018  -6.3429
    -2.9912  -0.0740   2.5796   4.7581   5.0363   5.7663   6.0271   6.7065
     6.9032   7.0476   7.4776   7.9717   8.4538   9.2627   9.3570  10.0559
    10.3500  10.6196  10.7070  11.2715  11.3013  11.6240

          k = 0.4620 0.0000 0.0000 ( 10140 PWs)   bands (ev):

   -21.7210 -21.6859 -10.0653  -9.7720  -7.2004  -7.1893  -7.1643  -6.3800
    -3.0449   0.1449   2.5678   4.6408   4.9200   5.7009   5.9458   6.4117
     6.8170   6.9497   7.2499   7.8228   8.3359   9.1450   9.4220  10.1682
    10.3686  10.9132  10.9323  11.4795  11.5071  11.6183

          k = 0.4428 0.0000 0.0000 ( 10130 PWs)   bands (ev):

   -21.7541 -21.7176  -9.9814  -9.6777  -7.2850  -7.1801  -7.1445  -6.4224
    -3.1010   0.3882   2.5459   4.5109   4.7602   5.6771   5.8617   6.1345
     6.6018   7.0039   7.0184   7.6703   8.1681   9.0003   9.4805  10.2926
    10.3215  11.0216  11.3303  11.6079  11.6552  11.7815

          k = 0.4235 0.0000 0.0000 ( 10130 PWs)   bands (ev):

   -21.7909 -21.7528  -9.8878  -9.5708  -7.3860  -7.1572  -7.1221  -6.4695
    -3.1587   0.6517   2.5102   4.3747   4.5774   5.6451   5.7652   5.9005
     6.4153   6.7979   7.0657   7.5187   7.9813   8.8437   9.4502  10.3612
    10.4107  10.9998  11.5911  11.6967  11.9171  12.0438

          k = 0.4043 0.0000 0.0000 ( 10118 PWs)   bands (ev):

   -21.8310 -21.7912  -9.7862  -9.4520  -7.4892  -7.1319  -7.0973  -6.5205
    -3.2175   0.9312   2.4573   4.2377   4.3871   5.4991   5.6450   5.7890
     6.2691   6.6018   7.1346   7.3743   7.7955   8.6832   9.3304  10.4749
    10.4819  10.9645  11.5660  11.8658  12.2464  12.3193

          k = 0.3850 0.0000 0.0000 ( 10120 PWs)   bands (ev):

   -21.8736 -21.8321  -9.6785  -9.3223  -7.5914  -7.1043  -7.0704  -6.5747
    -3.2771   1.2224   2.3845   4.1041   4.1992   5.2732   5.4979   5.7375
     6.1644   6.4460   7.2100   7.2439   7.6254   8.5244   9.1675  10.4169
    10.6236  11.0367  11.5307  11.8296  12.5921  12.6684

          k = 0.3658 0.0000 0.0000 ( 10114 PWs)   bands (ev):

   -21.9184 -21.8750  -9.5674  -9.1826  -7.6889  -7.0748  -7.0416  -6.6314
    -3.3376   1.5198   2.2903   3.9763   4.0206   5.0406   5.3321   5.6502
     6.0892   6.3387   7.1341   7.2915   7.4855   8.3724   8.9931  10.2713
    10.7353  11.2011  11.4835  11.7715  12.8679  13.0159

          k = 0.3465 0.0000 0.0000 ( 10104 PWs)   bands (ev):

   -21.9646 -21.9193  -9.4564  -9.0338  -7.7776  -7.0436  -7.0111  -6.6899
    -3.3988   1.8157   2.1750   3.8541   3.8589   4.8158   5.1593   5.5167
     6.0272   6.2602   7.0500   7.3782   7.3901   8.2322   8.8244  10.0952
    10.7805  11.4052  11.4230  11.7639  12.9317  13.3152

          k = 0.3273 0.0000 0.0000 ( 10102 PWs)   bands (ev):

   -22.0119 -21.9647  -9.3504  -8.8770  -7.8522  -7.0111  -6.9793  -6.7493
    -3.4610   2.0405   2.0971   3.7229   3.7380   4.6026   4.9877   5.3567
     5.9665   6.1765   6.9938   7.3460   7.4694   8.1099   8.6744   9.9112
    10.7508  11.3489  11.6217  11.8223  12.8562  13.4937

          k = 0.3080 0.0000 0.0000 ( 10090 PWs)   bands (ev):

   -22.0595 -22.0104  -9.2558  -8.7134  -7.9062  -6.9774  -6.9465  -6.8091
    -3.5241   1.8897   2.3403   3.6237   3.6338   4.4035   4.8221   5.1899
     5.9012   6.0701   6.9619   7.3430   7.5641   8.0129   8.5571   9.7279
    10.6692  11.2613  11.8234  11.9255  12.7722  13.4416

          k = 0.2888 0.0000 0.0000 ( 10100 PWs)   bands (ev):

   -22.1071 -22.0560  -9.1801  -8.5444  -7.9322  -6.9431  -6.9130  -6.8684
    -3.5881   1.7261   2.5072   3.5117   3.6166   4.2230   4.6647   5.0304
     5.8300   5.9440   6.9447   7.3535   7.6610   7.9503   8.4902   9.5496
    10.5636  11.1615  11.9609  12.0459  12.7590  13.2145

          k = 0.2695 0.0000 0.0000 ( 10096 PWs)   bands (ev):

   -22.1540 -22.1011  -9.1302  -8.3711  -7.9237  -6.9266  -6.9085  -6.8792
    -3.6531   1.5531   2.5683   3.4003   3.6719   4.0773   4.5165   4.8940
     5.7547   5.8093   6.9298   7.3473   7.7589   7.9316   8.4903   9.3787
    10.4527  11.0515  11.9839  12.1631  12.8738  13.0020

          k = 0.2503 0.0000 0.0000 ( 10086 PWs)   bands (ev):

   -22.1998 -22.1451  -9.1091  -8.1953  -7.8782  -6.9830  -6.8738  -6.8454
    -3.7190   1.3738   2.5409   3.2897   3.6948   4.0223   4.3778   4.8087
     5.6778   5.6801   6.9068   7.3082   7.8562   7.9622   8.5610   9.2172
    10.3481  10.9338  11.9179  12.2623  12.8066  13.0921

          k = 0.2310 0.0000 0.0000 ( 10068 PWs)   bands (ev):

   -22.2440 -22.1876  -9.1142  -8.0185  -7.7989  -7.0369  -6.8396  -6.8120
    -3.7858   1.1912   2.4655   3.1808   3.6056   4.0408   4.2484   4.8172
     5.5760   5.6016   6.8723   7.2404   7.9513   8.0405   8.6868   9.0665
    10.2595  10.8114  11.8152  12.3306  12.6310  13.3591

          k = 0.2118 0.0000 0.0000 ( 10076 PWs)   bands (ev):

   -22.2863 -22.2282  -9.1390  -7.8431  -7.6934  -7.0873  -6.8062  -6.7794
    -3.8533   1.0080   2.3699   3.0749   3.4802   4.0058   4.1285   4.9018
     5.5274   5.5418   6.8292   7.1572   8.0424   8.1577   8.8416   8.9291
    10.1982  10.6873  11.7027  12.3592  12.4772  13.4744

          k = 0.1925 0.0000 0.0000 ( 10060 PWs)   bands (ev):

   -22.3262 -22.2666  -9.1762  -7.6718  -7.5702  -7.1328  -6.7740  -6.7481
    -3.9212   0.8266   2.2683   2.9734   3.3540   3.9176   4.0179   4.9418
     5.4565   5.6498   6.7821   7.0709   8.1277   8.2999   8.8100   8.9959
    10.1804  10.5644  11.5912  12.3460  12.3470  13.5135

          k = 0.1733 0.0000 0.0000 ( 10050 PWs)   bands (ev):

   -22.3633 -22.3023  -9.2198  -7.5101  -7.4367  -7.1696  -6.7434  -6.7183
    -3.9894   0.6496   2.1674   2.8778   3.2351   3.8094   3.9167   4.8984
     5.3897   5.8882   6.7352   6.9924   8.2055   8.4361   8.7318   9.1192
    10.2266  10.4455  11.4857  12.2416  12.2956  13.5470

          k = 0.1540 0.0000 0.0000 ( 10032 PWs)   bands (ev):

   -22.3974 -22.3351  -9.2653  -7.3756  -7.2991  -7.1822  -6.7148  -6.6904
    -4.0571   0.4795   2.0711   2.7893   3.1261   3.6986   3.8253   4.8207
     5.3276   6.1734   6.6914   6.9377   8.2744   8.4725   8.7808   9.1907
    10.3330  10.3494  11.3887  12.1615  12.2146  13.5451

          k = 0.1348 0.0000 0.0000 ( 10016 PWs)   bands (ev):

   -22.4282 -22.3647  -9.3098  -7.3219  -7.1625  -7.1188  -6.6886  -6.6648
    -4.1236   0.3191   1.9818   2.7091   3.0281   3.5934   3.7437   4.7374
     5.2710   6.4236   6.6520   6.9508   8.3335   8.4140   8.9451   9.2130
    10.2290  10.5379  11.3013  12.1059  12.1088  13.4917

          k = 0.1155 0.0000 0.0000 (  9976 PWs)   bands (ev):

   -22.4553 -22.3908  -9.3511  -7.3316  -7.0313  -6.9996  -6.6651  -6.6419
    -4.1878   0.1713   1.9011   2.6380   2.9419   3.4978   3.6724   4.6591
     5.2205   6.5366   6.6180   7.1172   8.3423   8.3823   9.1358   9.2034
    10.1353  10.7644  11.2244  11.9848  12.0730  13.3979

          k = 0.0963 0.0000 0.0000 (  9990 PWs)   bands (ev):

   -22.4787 -22.4133  -9.3877  -7.3526  -6.9098  -6.8794  -6.6446  -6.6220
    -4.2483   0.0389   1.8302   2.5767   2.8679   3.4145   3.6115   4.5900
     5.1767   6.5395   6.5895   7.3993   8.2766   8.4209   9.1771   9.3263
    10.0536  10.9944  11.1584  11.8571  12.0594  13.2863

          k = 0.0770 0.0000 0.0000 (  9992 PWs)   bands (ev):

   -22.4980 -22.4319  -9.4188  -7.3729  -6.8021  -6.7727  -6.6274  -6.6053
    -4.3030  -0.0749   1.7705   2.5259   2.8067   3.3449   3.5613   4.5321
     5.1400   6.5131   6.5664   7.7068   8.2211   8.4503   9.1430   9.5039
     9.9851  11.1035  11.1718  11.7698  12.0605  13.1744

          k = 0.0578 0.0000 0.0000 (  9994 PWs)   bands (ev):

   -22.5132 -22.4466  -9.4435  -7.3898  -6.7123  -6.6852  -6.6138  -6.5920
    -4.3497  -0.1672   1.7228   2.4860   2.7586   3.2900   3.5221   4.4864
     5.1110   6.4845   6.5488   8.0008   8.1774   8.4713   9.1046   9.6579
     9.9308  11.0603  11.2058  11.8089  12.0708  13.0714

          k = 0.0385 0.0000 0.0000 (  9980 PWs)   bands (ev):

   -22.5242 -22.4571  -9.4615  -7.4022  -6.6446  -6.6202  -6.6039  -6.5824
    -4.3857  -0.2353   1.6880   2.4573   2.7240   3.2504   3.4939   4.4535
     5.0900   6.4616   6.5364   8.1459   8.2561   8.4852   9.0628   9.7779
     9.8914  11.0289  11.1240  11.9471  12.0840  12.9824

          k = 0.0193 0.0000 0.0000 (  9962 PWs)   bands (ev):

   -22.5308 -22.4635  -9.4724  -7.4097  -6.6022  -6.5979  -6.5801  -6.5766
    -4.4085  -0.2771   1.6669   2.4400   2.7031   3.2266   3.4770   4.4337
     5.0773   6.4471   6.5290   8.1269   8.4429   8.4931   9.0214   9.8546
     9.8676  11.0096  11.0365  12.0745  12.0946  12.9157

          k = 0.0000 0.0000 0.0000 (  9961 PWs)   bands (ev):

   -22.5330 -22.4656  -9.4760  -7.4123  -6.5959  -6.5879  -6.5746  -6.5666
    -4.4163  -0.2912   1.6598   2.4342   2.6961   3.2186   3.4713   4.4271
     5.0731   6.4421   6.5265   8.1205   8.4957   8.5159   9.0006   9.8596
     9.8810  10.9999  11.0045  12.0986  12.1256  12.8892

     Writing all to output data dir ./work/Al2O2.save/
 
     init_run     :      3.61s CPU      3.66s WALL (       1 calls)
     electrons    :     54.10s CPU     66.18s WALL (       1 calls)

     Called by init_run:
     wfcinit      :      0.00s CPU      0.00s WALL (       1 calls)
     wfcinit:atom :      0.01s CPU      0.01s WALL (      91 calls)
     wfcinit:wfcr :      0.90s CPU      1.24s WALL (      91 calls)
     potinit      :      3.46s CPU      3.49s WALL (       1 calls)
     hinit0       :      0.08s CPU      0.10s WALL (       1 calls)

     Called by electrons:
     c_bands      :     54.10s CPU     66.18s WALL (       1 calls)
     v_of_rho     :      3.43s CPU      3.45s WALL (       1 calls)
     v_h          :      0.00s CPU      0.00s WALL (       1 calls)
     v_xc         :      3.43s CPU      3.45s WALL (       1 calls)
     newd         :      0.03s CPU      0.04s WALL (       1 calls)
     PAW_pot      :      0.04s CPU      0.04s WALL (       1 calls)
     vdW_kernel   :      3.39s CPU      3.40s WALL (       1 calls)

     Called by c_bands:
     init_us_2    :      0.02s CPU      0.02s WALL (      91 calls)
     init_us_2:cp :      0.02s CPU      0.02s WALL (      91 calls)
     cegterg      :     52.98s CPU     64.71s WALL (     360 calls)

     Called by sum_band:

     Called by *egterg:
     cdiaghg      :      4.78s CPU      5.29s WALL (    6488 calls)
     cegterg:over :      3.56s CPU      4.19s WALL (    6397 calls)
     cegterg:upda :      2.14s CPU      2.27s WALL (    6397 calls)
     cegterg:last :      5.86s CPU      6.15s WALL (    3645 calls)
     h_psi        :     34.55s CPU     44.53s WALL (    6848 calls)
     s_psi        :      1.50s CPU      1.85s WALL (    6848 calls)
     g_psi        :      0.24s CPU      0.25s WALL (    6397 calls)

     Called by h_psi:
     h_psi:calbec :      1.64s CPU      2.18s WALL (    6848 calls)
     vloc_psi     :     31.20s CPU     40.21s WALL (    6848 calls)
     add_vuspsi   :      1.43s CPU      1.85s WALL (    6848 calls)

     General routines
     calbec       :      1.64s CPU      2.17s WALL (    6848 calls)
     fft          :      0.01s CPU      0.02s WALL (      62 calls)
     fftw         :     29.51s CPU     38.09s WALL (  220400 calls)
     davcio       :      0.03s CPU      0.04s WALL (     182 calls)
 
     Parallel routines

     PAW routines
     PAW_pot      :      0.04s CPU      0.04s WALL (       1 calls)
 
     PWSCF        :     57.97s CPU   1m10.47s WALL

 
   This run was terminated on:  12:41:50  22Jun2023            

=------------------------------------------------------------------------------=
   JOB DONE.
=------------------------------------------------------------------------------=
