
     Program PWSCF v.7.0 starts on 13Jun2023 at  3:35:10 

     This program is part of the open-source Quantum ESPRESSO suite
     for quantum simulation of materials; please cite
         "P. Giannozzi et al., J. Phys.:Condens. Matter 21 395502 (2009);
         "P. Giannozzi et al., J. Phys.:Condens. Matter 29 465901 (2017);
         "P. Giannozzi et al., J. Chem. Phys. 152 154105 (2020);
          URL http://www.quantum-espresso.org", 
     in publications or presentations arising from this work. More details at
     http://www.quantum-espresso.org/quote

     Parallel version (MPI), running on    10 processors

     MPI processes distributed on     1 nodes
     R & G space division:  proc/nbgrp/npool/nimage =      10
     14857 MiB available memory on the printing compute node when the environment starts
 
     Waiting for input...
     Reading input from standard input

     Current dimensions of program PWSCF are:
     Max number of different atomic species (ntypx) = 10
     Max number of k-points (npk) =  40000
     Max angular momentum in pseudopotentials (lmaxx) =  4
     Message from routine volume:
     axis vectors are left-handed

     Atomic positions and unit cell read from directory:
     ./work/Al2SO.save/
     Atomic positions from file used, from input discarded
 
     Message from routine volume:
     axis vectors are left-handed
     file Al.pbe-n-kjpaw_psl.1.0.0.UPF: wavefunction(s)  3S 3P renormalized
     file O.pbe-n-kjpaw_psl.1.0.0.UPF: wavefunction(s)  2S 2P renormalized
     file S.pbe-n-kjpaw_psl.1.0.0.UPF: wavefunction(s)  3S 3P renormalized

     IMPORTANT: XC functional enforced from input :
     Exchange-correlation= VDW-DF2-B86R
                           (   1   4  26   0   2   0   0)
     Any further DFT definition will be discarded
     Please, verify this is what you really want

     Message from routine setup:
     using ibrav=0 with symmetry is DISCOURAGED, use correct ibrav instead

     Subspace diagonalization in iterative solution of the eigenvalue problem:
     a serial algorithm will be used

 
     Parallelization info
     --------------------
     sticks:   dense  smooth     PW     G-vecs:    dense   smooth      PW
     Min          62      62     18                 9614     9614    1544
     Max          63      63     19                 9626     9626    1549
     Sum         621     621    187                96189    96189   15457
 
     Using Slab Decomposition
 


     bravais-lattice index     =            0
     lattice parameter (alat)  =       6.1245  a.u.
     unit-cell volume          =    1535.6018 (a.u.)^3
     number of atoms/cell      =            4
     number of atomic types    =            3
     number of electrons       =        18.00
     number of Kohn-Sham states=           30
     kinetic-energy cutoff     =      60.0000  Ry
     charge density cutoff     =     240.0000  Ry
     Exchange-correlation= VDW-DF2-B86R
                           (   1   4  26   0   2   0   0)

     celldm(1)=   6.124520  celldm(2)=   0.000000  celldm(3)=   0.000000
     celldm(4)=   0.000000  celldm(5)=   0.000000  celldm(6)=   0.000000

     crystal axes: (cart. coord. in units of alat)
               a(1) = (   0.865761   0.500458   0.000000 )  
               a(2) = (   0.865761  -0.500458   0.000000 )  
               a(3) = (   0.000000   0.000000   7.713773 )  

     reciprocal axes: (cart. coord. in units 2 pi/alat)
               b(1) = (  0.577527  0.999084  0.000000 )  
               b(2) = (  0.577527 -0.999084  0.000000 )  
               b(3) = (  0.000000  0.000000  0.129638 )  


     PseudoPot. # 1 for Al read from file:
     /home/mainadmin/research/danu/pseudo/Al.pbe-n-kjpaw_psl.1.0.0.UPF
     MD5 check sum: 502b6b27b9c6270cab5dd1084b96fa6d
     Pseudo is Projector augmented-wave + core cor, Zval =  3.0
     Generated using &quot;atomic&quot; code by A. Dal Corso  v.6.3
     Shape of augmentation charge: PSQ
     Using radial grid of 1135 points,  6 beta functions with: 
                l(1) =   0
                l(2) =   0
                l(3) =   1
                l(4) =   1
                l(5) =   2
                l(6) =   2
     Q(r) pseudized with 0 coefficients 


     PseudoPot. # 2 for O  read from file:
     /home/mainadmin/research/danu/pseudo/O.pbe-n-kjpaw_psl.1.0.0.UPF
     MD5 check sum: e99d9cef9b487d1ca56f5b95ecd0fd7a
     Pseudo is Projector augmented-wave + core cor, Zval =  6.0
     Generated using &quot;atomic&quot; code by A. Dal Corso  v.6.3
     Shape of augmentation charge: PSQ
     Using radial grid of 1095 points,  4 beta functions with: 
                l(1) =   0
                l(2) =   0
                l(3) =   1
                l(4) =   1
     Q(r) pseudized with 0 coefficients 


     PseudoPot. # 3 for S  read from file:
     /home/mainadmin/research/danu/pseudo/S.pbe-n-kjpaw_psl.1.0.0.UPF
     MD5 check sum: fb45dfebcf3e72a4e1bd4a866ec2e262
     Pseudo is Projector augmented-wave + core cor, Zval =  6.0
     Generated using &quot;atomic&quot; code by A. Dal Corso  v.6.3
     Shape of augmentation charge: PSQ
     Using radial grid of 1151 points,  6 beta functions with: 
                l(1) =   0
                l(2) =   0
                l(3) =   1
                l(4) =   1
                l(5) =   2
                l(6) =   2
     Q(r) pseudized with 0 coefficients 


     atomic species   valence    mass     pseudopotential
        Al             3.00    26.98100     Al( 1.00)
        O              6.00    15.99900     O ( 1.00)
        S              6.00    32.06500     S ( 1.00)

      2 Sym. Ops. (no inversion) found



   Cartesian axes

     site n.     atom                  positions (alat units)
         1           O   tau(   1) = (   1.1544229   0.0000000   3.2464034  )
         2           Al  tau(   2) = (   0.5777197   0.0000000   3.4120502  )
         3           Al  tau(   3) = (   0.5767525   0.0000000   4.2159765  )
         4           S   tau(   4) = (   1.1541478   0.0000000   4.5934659  )

     number of k points=    91
                       cart. coord. in units 2pi/alat
        k(    1) = (   0.0000000   0.0000000   0.0000000), wk =   0.0219780
        k(    2) = (   0.0188274   0.0103545   0.0000000), wk =   0.0219780
        k(    3) = (   0.0376547   0.0207090   0.0000000), wk =   0.0219780
        k(    4) = (   0.0564821   0.0310635   0.0000000), wk =   0.0219780
        k(    5) = (   0.0753095   0.0414180   0.0000000), wk =   0.0219780
        k(    6) = (   0.0941369   0.0517726   0.0000000), wk =   0.0219780
        k(    7) = (   0.1129642   0.0621271   0.0000000), wk =   0.0219780
        k(    8) = (   0.1317916   0.0724816   0.0000000), wk =   0.0219780
        k(    9) = (   0.1506190   0.0828361   0.0000000), wk =   0.0219780
        k(   10) = (   0.1694464   0.0931906   0.0000000), wk =   0.0219780
        k(   11) = (   0.1882737   0.1035451   0.0000000), wk =   0.0219780
        k(   12) = (   0.2071011   0.1138996   0.0000000), wk =   0.0219780
        k(   13) = (   0.2259285   0.1242541   0.0000000), wk =   0.0219780
        k(   14) = (   0.2447559   0.1346087   0.0000000), wk =   0.0219780
        k(   15) = (   0.2635832   0.1449632   0.0000000), wk =   0.0219780
        k(   16) = (   0.2824106   0.1553177   0.0000000), wk =   0.0219780
        k(   17) = (   0.3012380   0.1656722   0.0000000), wk =   0.0219780
        k(   18) = (   0.3200653   0.1760267   0.0000000), wk =   0.0219780
        k(   19) = (   0.3388927   0.1863812   0.0000000), wk =   0.0219780
        k(   20) = (   0.3577201   0.1967357   0.0000000), wk =   0.0219780
        k(   21) = (   0.3765475   0.2070902   0.0000000), wk =   0.0219780
        k(   22) = (   0.3953748   0.2174447   0.0000000), wk =   0.0219780
        k(   23) = (   0.4142022   0.2277993   0.0000000), wk =   0.0219780
        k(   24) = (   0.4330296   0.2381538   0.0000000), wk =   0.0219780
        k(   25) = (   0.4518570   0.2485083   0.0000000), wk =   0.0219780
        k(   26) = (   0.4706843   0.2588628   0.0000000), wk =   0.0219780
        k(   27) = (   0.4895117   0.2692173   0.0000000), wk =   0.0219780
        k(   28) = (   0.5083391   0.2795718   0.0000000), wk =   0.0219780
        k(   29) = (   0.5271664   0.2899263   0.0000000), wk =   0.0219780
        k(   30) = (   0.5459938   0.3002808   0.0000000), wk =   0.0219780
        k(   31) = (   0.5648212   0.3106353   0.0000000), wk =   0.0219780
        k(   32) = (   0.5652447   0.3002808   0.0000000), wk =   0.0219780
        k(   33) = (   0.5656682   0.2899263   0.0000000), wk =   0.0219780
        k(   34) = (   0.5660918   0.2795718   0.0000000), wk =   0.0219780
        k(   35) = (   0.5665153   0.2692173   0.0000000), wk =   0.0219780
        k(   36) = (   0.5669388   0.2588628   0.0000000), wk =   0.0219780
        k(   37) = (   0.5673623   0.2485083   0.0000000), wk =   0.0219780
        k(   38) = (   0.5677858   0.2381538   0.0000000), wk =   0.0219780
        k(   39) = (   0.5682094   0.2277993   0.0000000), wk =   0.0219780
        k(   40) = (   0.5686329   0.2174447   0.0000000), wk =   0.0219780
        k(   41) = (   0.5690564   0.2070902   0.0000000), wk =   0.0219780
        k(   42) = (   0.5694799   0.1967357   0.0000000), wk =   0.0219780
        k(   43) = (   0.5699034   0.1863812   0.0000000), wk =   0.0219780
        k(   44) = (   0.5703269   0.1760267   0.0000000), wk =   0.0219780
        k(   45) = (   0.5707505   0.1656722   0.0000000), wk =   0.0219780
        k(   46) = (   0.5711740   0.1553177   0.0000000), wk =   0.0219780
        k(   47) = (   0.5715975   0.1449632   0.0000000), wk =   0.0219780
        k(   48) = (   0.5720210   0.1346087   0.0000000), wk =   0.0219780
        k(   49) = (   0.5724445   0.1242541   0.0000000), wk =   0.0219780
        k(   50) = (   0.5728681   0.1138996   0.0000000), wk =   0.0219780
        k(   51) = (   0.5732916   0.1035451   0.0000000), wk =   0.0219780
        k(   52) = (   0.5737151   0.0931906   0.0000000), wk =   0.0219780
        k(   53) = (   0.5741386   0.0828361   0.0000000), wk =   0.0219780
        k(   54) = (   0.5745621   0.0724816   0.0000000), wk =   0.0219780
        k(   55) = (   0.5749857   0.0621271   0.0000000), wk =   0.0219780
        k(   56) = (   0.5754092   0.0517726   0.0000000), wk =   0.0219780
        k(   57) = (   0.5758327   0.0414180   0.0000000), wk =   0.0219780
        k(   58) = (   0.5762562   0.0310635   0.0000000), wk =   0.0219780
        k(   59) = (   0.5766797   0.0207090   0.0000000), wk =   0.0219780
        k(   60) = (   0.5771033   0.0103545   0.0000000), wk =   0.0219780
        k(   61) = (   0.5775268   0.0000000   0.0000000), wk =   0.0219780
        k(   62) = (   0.5582759   0.0000000   0.0000000), wk =   0.0219780
        k(   63) = (   0.5390250   0.0000000   0.0000000), wk =   0.0219780
        k(   64) = (   0.5197741   0.0000000   0.0000000), wk =   0.0219780
        k(   65) = (   0.5005232   0.0000000   0.0000000), wk =   0.0219780
        k(   66) = (   0.4812723   0.0000000   0.0000000), wk =   0.0219780
        k(   67) = (   0.4620214   0.0000000   0.0000000), wk =   0.0219780
        k(   68) = (   0.4427705   0.0000000   0.0000000), wk =   0.0219780
        k(   69) = (   0.4235196   0.0000000   0.0000000), wk =   0.0219780
        k(   70) = (   0.4042687   0.0000000   0.0000000), wk =   0.0219780
        k(   71) = (   0.3850179   0.0000000   0.0000000), wk =   0.0219780
        k(   72) = (   0.3657670   0.0000000   0.0000000), wk =   0.0219780
        k(   73) = (   0.3465161   0.0000000   0.0000000), wk =   0.0219780
        k(   74) = (   0.3272652   0.0000000   0.0000000), wk =   0.0219780
        k(   75) = (   0.3080143   0.0000000   0.0000000), wk =   0.0219780
        k(   76) = (   0.2887634   0.0000000   0.0000000), wk =   0.0219780
        k(   77) = (   0.2695125   0.0000000   0.0000000), wk =   0.0219780
        k(   78) = (   0.2502616   0.0000000   0.0000000), wk =   0.0219780
        k(   79) = (   0.2310107   0.0000000   0.0000000), wk =   0.0219780
        k(   80) = (   0.2117598   0.0000000   0.0000000), wk =   0.0219780
        k(   81) = (   0.1925089   0.0000000   0.0000000), wk =   0.0219780
        k(   82) = (   0.1732580   0.0000000   0.0000000), wk =   0.0219780
        k(   83) = (   0.1540071   0.0000000   0.0000000), wk =   0.0219780
        k(   84) = (   0.1347562   0.0000000   0.0000000), wk =   0.0219780
        k(   85) = (   0.1155054   0.0000000   0.0000000), wk =   0.0219780
        k(   86) = (   0.0962545   0.0000000   0.0000000), wk =   0.0219780
        k(   87) = (   0.0770036   0.0000000   0.0000000), wk =   0.0219780
        k(   88) = (   0.0577527   0.0000000   0.0000000), wk =   0.0219780
        k(   89) = (   0.0385018   0.0000000   0.0000000), wk =   0.0219780
        k(   90) = (   0.0192509   0.0000000   0.0000000), wk =   0.0219780
        k(   91) = (   0.0000000   0.0000000   0.0000000), wk =   0.0219780

     Dense  grid:    96189 G-vectors     FFT dimensions: (  32,  32, 240)

     Estimated max dynamical RAM per process >      36.61 MB

     Estimated total dynamical RAM >     366.06 MB

     Check: negative core charge=   -0.000002

     The potential is recalculated from file :
     ./work/Al2SO.save/charge-density


     negative rho (up, down):  1.179E-03 0.000E+00


     %%%%%%%%%%%%%%%%%%%%%%%%%%%%%%%%%%%%%%%%%%%%%%%%%%%%%%%%%%%%%%%%%%%%%%%%
     %                                                                      %
     % You are using vdW-DF, which was implemented by the Thonhauser group. %
     % Please cite the following two papers that made this development      %
     % possible and the two reviews that describe the various versions:     %
     %                                                                      %
     %   T. Thonhauser et al., PRL 115, 136402 (2015).                      %
     %   T. Thonhauser et al., PRB 76, 125112 (2007).                       %
     %   K. Berland et al., Rep. Prog. Phys. 78, 066501 (2015).             %
     %   D.C. Langreth et al., J. Phys.: Condens. Matter 21, 084203 (2009). %
     %                                                                      %
     %                                                                      %
     % If you are calculating the stress with vdW-DF, please also cite:     %
     %                                                                      %
     %   R. Sabatini et al., J. Phys.: Condens. Matter 24, 424209 (2012).   %
     %                                                                      %
     %%%%%%%%%%%%%%%%%%%%%%%%%%%%%%%%%%%%%%%%%%%%%%%%%%%%%%%%%%%%%%%%%%%%%%%%


     Starting wfcs are   16 randomized atomic wfcs +   14 random wfcs
     Checking if some PAW data can be deallocated... 

     Band Structure Calculation
     Davidson diagonalization with overlap
     c_bands:  1 eigenvalues not converged
     c_bands:  1 eigenvalues not converged
     c_bands:  1 eigenvalues not converged

     ethr =  5.56E-11,  avg # of iterations = 68.3

     total cpu time spent up to now is       91.4 secs

     End of band structure calculation

          k = 0.0000 0.0000 0.0000 ( 12063 PWs)   bands (ev):

   -21.7765 -16.0953  -8.6400  -6.7684  -6.7654  -6.5815  -3.9854  -2.2452
    -2.2336  -0.7924   1.8256   2.7433   2.9944   3.7721   3.9498   4.3355
     5.1922   5.2391   5.2580   5.5995   6.6573   6.6802   7.1277   7.8953
     8.6424   8.6617   9.1888   9.9259  10.7243  10.7420

          k = 0.0188 0.0104 0.0000 ( 12047 PWs)   bands (ev):

   -21.7748 -16.0908  -8.6363  -6.7820  -6.7680  -6.5782  -3.9766  -2.2693
    -2.2483  -0.7803   1.8314   2.7491   3.0008   3.7784   3.9588   4.3558
     5.1695   5.2468   5.2606   5.6070   6.6338   6.6711   7.1292   7.9098
     8.5938   8.6370   9.2315   9.9417  10.7101  10.7438

          k = 0.0377 0.0207 0.0000 ( 12075 PWs)   bands (ev):

   -21.7696 -16.0771  -8.6256  -6.8233  -6.7740  -6.5681  -3.9511  -2.3610
    -2.2705  -0.7450   1.8487   2.7663   3.0200   3.7972   3.9825   4.4153
     5.0964   5.2555   5.2916   5.6284   6.5303   6.6865   7.1326   7.9476
     8.4474   8.6011   9.3284   9.9831  10.6458  10.7776

          k = 0.0565 0.0311 0.0000 ( 12081 PWs)   bands (ev):

   -21.7612 -16.0544  -8.6081  -6.8887  -6.7840  -6.5516  -3.9113  -2.5067
    -2.3061  -0.6878   1.8772   2.7942   3.0520   3.8281   4.0138   4.5075
     4.9802   5.2667   5.3511   5.6616   6.3799   6.7164   7.1350   7.9980
     8.2677   8.5425   9.4373  10.0413  10.5688  10.8183

          k = 0.0753 0.0414 0.0000 ( 12083 PWs)   bands (ev):

   -21.7494 -16.0227  -8.5847  -6.9737  -6.7981  -6.5287  -3.8607  -2.6957
    -2.3562  -0.6107   1.9166   2.8321   3.0966   3.8706   4.0470   4.6105
     4.8424   5.2801   5.4316   5.7056   6.2063   6.7624   7.1322   8.0462
     8.0981   8.4637   9.5263  10.1149  10.5060  10.8487

          k = 0.0941 0.0518 0.0000 ( 12101 PWs)   bands (ev):

   -21.7345 -15.9822  -8.5566  -7.0728  -6.8165  -6.4996  -3.8040  -2.9163
    -2.4211  -0.5155   1.9665   2.8791   3.1537   3.9232   4.0771   4.6060
     4.8000   5.2908   5.5176   5.7574   6.0323   6.8325   7.1222   7.9334
     8.1126   8.3794   9.5742  10.2043  10.4718  10.8585

          k = 0.1130 0.0621 0.0000 ( 12104 PWs)   bands (ev):

   -21.7166 -15.9331  -8.5257  -7.1798  -6.8393  -6.4648  -3.7493  -3.1539
    -2.5011  -0.4039   2.0262   2.9336   3.2230   3.9820   4.0915   4.4612
     4.8993   5.2898   5.5754   5.7814   5.9164   6.9409   7.1107   7.8089
     8.1487   8.3294   9.5799  10.2996  10.4646  10.8470

          k = 0.1318 0.0725 0.0000 ( 12106 PWs)   bands (ev):

   -21.6959 -15.8755  -8.4952  -7.2879  -6.8666  -6.4245  -3.7245  -3.3752
    -2.5963  -0.2777   2.0950   2.9929   3.3043   4.0009   4.0854   4.3616
     5.0084   5.2618   5.5464   5.7294   5.9568   7.0745   7.1309   7.6935
     8.1656   8.3546   9.5565  10.3685  10.4842  10.8262

          k = 0.1506 0.0828 0.0000 ( 12103 PWs)   bands (ev):

   -21.6727 -15.8098  -8.4697  -7.3891  -6.8987  -6.3793  -3.8334  -3.4712
    -2.7067  -0.1387   2.1718   3.0513   3.3965   3.8656   4.1413   4.3609
     5.1082   5.1940   5.4318   5.7253   6.0465   7.0968   7.2746   7.6149
     8.2208   8.4273   9.5156  10.3528  10.5542  10.8191

          k = 0.1694 0.0932 0.0000 ( 12103 PWs)   bands (ev):

   -21.6471 -15.7363  -8.4559  -7.4740  -6.9358  -6.3301  -4.0731  -3.4404
    -2.8320   0.0113   2.2551   3.0933   3.4975   3.6921   4.2034   4.4156
     5.0755   5.1800   5.3403   5.7517   6.1526   7.0811   7.2830   7.7258
     8.3539   8.5223   9.4628  10.2667  10.6473  10.8416

          k = 0.1883 0.1035 0.0000 ( 12087 PWs)   bands (ev):

   -21.6196 -15.6553  -8.4617  -7.5326  -6.9780  -6.2778  -4.3428  -3.3796
    -2.9714   0.1705   2.3426   3.0774   3.5483   3.6205   4.2499   4.4974
     4.9481   5.1184   5.3904   5.7993   6.2723   6.9764   7.2634   7.9268
     8.5697   8.6482   9.3999  10.1458  10.7412  10.8951

          k = 0.2071 0.1139 0.0000 ( 12099 PWs)   bands (ev):

   -21.5903 -15.5673  -8.4928  -7.5572  -7.0254  -6.2245  -4.6141  -3.3139
    -3.1230   0.3371   2.4295   2.9590   3.5217   3.7268   4.2712   4.5837
     4.8451   5.0332   5.4986   5.8641   6.4045   6.8081   7.2928   8.0992
     8.7302   8.9190   9.3371  10.0218  10.8256  10.9806

          k = 0.2259 0.1243 0.0000 ( 12095 PWs)   bands (ev):

   -21.5597 -15.4729  -8.5495  -7.5467  -7.0782  -6.1733  -4.8757  -3.3053
    -3.2295   0.5093   2.4973   2.7876   3.5455   3.8293   4.2708   4.6307
     4.8326   4.9831   5.6201   5.9429   6.5456   6.6331   7.3403   8.2359
     8.8626   9.1119   9.4157   9.9322  10.8997  11.0960

          k = 0.2448 0.1346 0.0000 ( 12111 PWs)   bands (ev):

   -21.5281 -15.3727  -8.6256  -7.5067  -7.1365  -6.1310  -5.1165  -3.4735
    -3.1721   0.6849   2.4429   2.7102   3.5504   3.9081   4.2946   4.6495
     4.8525   5.0289   5.7488   6.0325   6.4600   6.7084   7.3963   8.3315
     8.9961   9.0594   9.6468   9.9935  10.9706  11.2342

          k = 0.2636 0.1450 0.0000 ( 12101 PWs)   bands (ev):

   -21.4959 -15.2674  -8.7130  -7.4457  -7.2001  -6.1111  -5.3193  -3.6598
    -3.1097   0.8616   2.2444   2.7648   3.4865   3.9808   4.3849   4.6817
     4.8473   5.1668   5.8801   6.1203   6.3314   6.8736   7.4589   8.3531
     8.9944   9.1552   9.6720  10.3158  11.0420  11.3948

          k = 0.2824 0.1553 0.0000 ( 12085 PWs)   bands (ev):

   -21.4634 -15.1578  -8.8045  -7.3726  -7.2688  -6.1376  -5.4564  -3.8550
    -3.0507   1.0356   2.0205   2.8379   3.3648   4.0728   4.5165   4.7214
     4.8683   5.3380   5.9883   6.1509   6.3272   7.0456   7.5282   8.2736
     9.0217   9.3036   9.6556  10.6509  11.1099  11.5865

          k = 0.3012 0.1657 0.0000 ( 12065 PWs)   bands (ev):

   -21.4311 -15.0450  -8.8947  -7.3460  -7.2924  -6.2254  -5.5078  -4.0568
    -2.9969   1.1986   1.8011   2.9047   3.2241   4.1782   4.6316   4.7811
     4.9443   5.5264   5.9795   6.2323   6.4402   7.2141   7.6058   8.1340
     9.1051   9.4356   9.6674  10.8802  11.1509  11.7842

          k = 0.3201 0.1760 0.0000 ( 12063 PWs)   bands (ev):

   -21.3993 -14.9299  -8.9798  -7.4243  -7.2229  -6.3492  -5.4903  -4.2635
    -2.9491   1.3153   1.6233   2.9586   3.0908   4.2808   4.6738   4.9128
     5.0753   5.7230   5.9344   6.3795   6.5846   7.3456   7.6989   8.0055
     9.1920   9.5133   9.7588  10.9713  11.1078  11.7086

          k = 0.3389 0.1864 0.0000 ( 12053 PWs)   bands (ev):

   -21.3684 -14.8140  -9.0572  -7.5085  -7.1753  -6.4647  -5.4340  -4.4733
    -2.9083   1.2490   1.6201   2.9806   2.9982   4.3525   4.7114   5.0726
     5.2527   5.8617   5.9844   6.5422   6.7455   7.3636   7.8337   7.9650
     9.2303   9.5765   9.9126  10.8965  11.0139  11.6920

          k = 0.3577 0.1967 0.0000 ( 12067 PWs)   bands (ev):

   -21.3388 -14.6985  -9.1249  -7.5972  -7.1721  -6.5336  -5.3570  -4.6844
    -2.8751   1.0616   1.7229   2.9102   3.0203   4.3635   4.8004   5.2402
     5.4625   5.8940   6.1860   6.7123   6.9182   7.2638   7.9960   8.0476
     9.2021   9.6637  10.0803  10.6865  10.9501  11.7012

          k = 0.3765 0.2071 0.0000 ( 12053 PWs)   bands (ev):

   -21.3107 -14.5850  -9.1815  -7.6898  -7.2225  -6.5397  -5.2686  -4.8944
    -2.8498   0.8603   1.8167   2.8873   3.0295   4.3234   4.9382   5.4146
     5.6891   5.9516   6.4008   6.8840   7.0820   7.1596   8.1080   8.2567
     9.1329   9.7407  10.2087  10.4949  10.8976  11.6481

          k = 0.3954 0.2174 0.0000 ( 12042 PWs)   bands (ev):

   -21.2846 -14.4751  -9.2260  -7.7859  -7.3063  -6.4999  -5.1856  -5.0893
    -2.8322   0.6624   1.8813   2.9140   3.0303   4.2574   5.1040   5.5910
     5.9055   6.0650   6.5740   7.0085   7.1203   7.3036   8.2239   8.4863
     9.0505   9.7676  10.1145  10.5293  10.8847  11.4629

          k = 0.4142 0.2278 0.0000 ( 12019 PWs)   bands (ev):

   -21.2607 -14.3706  -9.2577  -7.8846  -7.3976  -6.4391  -5.3225  -5.0561
    -2.8217   0.4725   1.9192   2.9628   3.0456   4.1809   5.2852   5.7537
     6.0660   6.2686   6.6365   7.1305   7.2898   7.4937   8.3345   8.6806
     9.0119   9.7225   9.9250  10.6601  10.9172  11.2423

          k = 0.4330 0.2382 0.0000 ( 12011 PWs)   bands (ev):

   -21.2391 -14.2732  -9.2761  -7.9853  -7.4799  -6.3729  -5.5229  -4.9524
    -2.8171   0.2929   1.9417   2.9689   3.1264   4.1026   5.4733   5.8668
     6.2091   6.5018   6.6911   7.3516   7.4866   7.6778   8.4124   8.7311
     9.1470   9.5950   9.7954  10.6601  10.9997  11.0946

          k = 0.4519 0.2485 0.0000 ( 12004 PWs)   bands (ev):

   -21.2201 -14.1847  -9.2812  -8.0871  -7.5448  -6.3095  -5.7200  -4.8468
    -2.8163   0.1257   1.9592   2.9535   3.2365   4.0286   5.6495   5.9110
     6.3804   6.6719   6.8982   7.5844   7.7057   7.8410   8.4244   8.7385
     9.3342   9.4891   9.7341  10.5081  10.8733  10.9324

          k = 0.4707 0.2589 0.0000 ( 11992 PWs)   bands (ev):

   -21.2038 -14.1065  -9.2730  -8.1889  -7.5876  -6.2529  -5.9103  -4.7447
    -2.8170  -0.0269   1.9771   2.9385   3.3412   3.9646   5.7368   5.9926
     6.5786   6.8328   7.1906   7.7428   7.9511   7.9957   8.4011   8.7853
     9.2269   9.6821   9.7478  10.3269  10.6332  10.7250

          k = 0.4895 0.2692 0.0000 ( 11998 PWs)   bands (ev):

   -21.1902 -14.0399  -9.2522  -8.2896  -7.6066  -6.2061  -6.0911  -4.6507
    -2.8168  -0.1626   1.9957   2.9322   3.4198   3.9170   5.7183   6.1752
     6.7887   7.0011   7.5050   7.7865   8.1089   8.2265   8.4276   8.8672
     9.0974   9.6790  10.0068  10.1911  10.3733  10.5704

          k = 0.5083 0.2796 0.0000 ( 12004 PWs)   bands (ev):

   -21.1794 -13.9859  -9.2199  -8.3873  -7.6017  -6.2651  -6.1642  -4.5695
    -2.8136  -0.2785   2.0119   2.9420   3.4566   3.8915   5.6893   6.3875
     6.9935   7.1372   7.7443   7.8723   8.1912   8.3299   8.6606   8.9281
     9.0536   9.6206  10.0127  10.1131  10.3688  10.4591

          k = 0.5272 0.2899 0.0000 ( 11994 PWs)   bands (ev):

   -21.1712 -13.9447  -9.1786  -8.4795  -7.5755  -6.4187  -6.1369  -4.5048
    -2.8068  -0.3717   2.0220   2.9728   3.4484   3.8845   5.6797   6.6046
     7.1261   7.2356   7.8022   8.1318   8.2457   8.4202   8.8554   9.0102
     9.1297   9.5713   9.8351   9.9272  10.2298  10.4668

          k = 0.5460 0.3003 0.0000 ( 12001 PWs)   bands (ev):

   -21.1656 -13.9163  -9.1328  -8.5614  -7.5348  -6.5504  -6.1178  -4.4593
    -2.7976  -0.4393   2.0245   3.0248   3.4082   3.8833   5.6905   6.8089
     7.1096   7.3536   7.8842   8.1740   8.4453   8.5894   8.8475   9.1110
     9.3416   9.5586   9.6671   9.8168  10.0105  10.3941

          k = 0.5648 0.3106 0.0000 ( 12032 PWs)   bands (ev):

   -21.1624 -13.9002  -9.0921  -8.6236  -7.4930  -6.6461  -6.1071  -4.4333
    -2.7888  -0.4793   2.0212   3.0879   3.3558   3.8792   5.7100   6.9416
     7.1000   7.3959   7.9723   8.2236   8.4602   8.8063   8.9599   9.0996
     9.3652   9.4795   9.7508   9.8254   9.8957  10.1884

          k = 0.5652 0.3003 0.0000 ( 12036 PWs)   bands (ev):

   -21.1634 -13.9054  -9.1132  -8.5945  -7.5182  -6.6010  -6.1104  -4.4413
    -2.7945  -0.4667   2.0281   3.0519   3.3759   3.8906   5.6971   6.9335
     7.0597   7.3730   7.8811   8.2658   8.4312   8.8426   8.8819   9.0918
     9.2875   9.5163   9.7139   9.8750   9.9852  10.1272

          k = 0.5657 0.2899 0.0000 ( 12009 PWs)   bands (ev):

   -21.1649 -13.9124  -9.1393  -8.5574  -7.5509  -6.5412  -6.1144  -4.4515
    -2.8027  -0.4507   2.0394   3.0105   3.3912   3.9094   5.6811   6.8904
     7.0406   7.3317   7.7806   8.2928   8.4328   8.8008   8.8423   9.1223
     9.2217   9.5220   9.6567   9.8758  10.0504  10.2040

          k = 0.5661 0.2796 0.0000 ( 12005 PWs)   bands (ev):

   -21.1666 -13.9209  -9.1688  -8.5140  -7.5891  -6.4696  -6.1190  -4.4636
    -2.8133  -0.4326   2.0561   2.9661   3.3981   3.9359   5.6640   6.8039
     7.0438   7.2799   7.6845   8.2732   8.4884   8.7317   8.8069   9.0903
     9.2543   9.4980   9.6023   9.8527  10.0484  10.2556

          k = 0.5665 0.2692 0.0000 ( 12002 PWs)   bands (ev):

   -21.1687 -13.9308  -9.2004  -8.4659  -7.6309  -6.3887  -6.1231  -4.4773
    -2.8263  -0.4134   2.0786   2.9205   3.3956   3.9688   5.6478   6.6853
     7.0449   7.2341   7.5986   8.2332   8.5528   8.6740   8.7729   9.0178
     9.3175   9.4822   9.5523   9.8034  10.0405  10.3201

          k = 0.5669 0.2589 0.0000 ( 11998 PWs)   bands (ev):

   -21.1710 -13.9418  -9.2331  -8.4142  -7.6748  -6.3029  -6.1245  -4.4922
    -2.8415  -0.3943   2.1076   2.8746   3.3841   4.0057   5.6341   6.5414
     7.0243   7.2135   7.5234   8.1882   8.5570   8.6486   8.7717   8.9503
     9.3179   9.4789   9.5482   9.7579  10.0163  10.4223

          k = 0.5674 0.2485 0.0000 ( 12002 PWs)   bands (ev):

   -21.1735 -13.9538  -9.2664  -8.3596  -7.7199  -6.2244  -6.1121  -4.5079
    -2.8585  -0.3764   2.1431   2.8295   3.3649   4.0437   5.6240   6.3790
     6.9825   7.2177   7.4570   8.1419   8.5083   8.6259   8.7904   8.9211
     9.2785   9.4364   9.5808   9.7586   9.9922  10.5264

          k = 0.5678 0.2382 0.0000 ( 12028 PWs)   bands (ev):

   -21.1763 -13.9666  -9.2996  -8.3028  -7.7651  -6.1868  -6.0533  -4.5242
    -2.8770  -0.3606   2.1847   2.7865   3.3392   4.0802   5.6161   6.2070
     6.9328   7.2315   7.3979   8.0953   8.4520   8.5962   8.7518   8.9627
     9.2324   9.3956   9.5621   9.8127   9.9913  10.6016

          k = 0.5682 0.2278 0.0000 ( 12024 PWs)   bands (ev):

   -21.1792 -13.9800  -9.3324  -8.2444  -7.8100  -6.1832  -5.9560  -4.5407
    -2.8968  -0.3478   2.2311   2.7474   3.3082   4.1125   5.6038   6.0393
     6.8827   7.2440   7.3463   8.0488   8.3960   8.5680   8.6916   9.0076
     9.1892   9.3629   9.5369   9.8381  10.0495  10.6317

          k = 0.5686 0.2174 0.0000 ( 12026 PWs)   bands (ev):

   -21.1823 -13.9939  -9.3647  -8.1849  -7.8541  -6.1886  -5.8461  -4.5571
    -2.9176  -0.3385   2.2794   2.7157   3.2730   4.1389   5.5642   5.9040
     6.8346   7.2459   7.3067   8.0025   8.3418   8.5416   8.6328   9.0184
     9.1511   9.3315   9.5411   9.8297  10.1502  10.6292

          k = 0.5691 0.2071 0.0000 ( 12018 PWs)   bands (ev):

   -21.1854 -14.0082  -9.3961  -8.1248  -7.8968  -6.1967  -5.7305  -4.5730
    -2.9391  -0.3333   2.3233   2.6975   3.2344   4.1578   5.4612   5.8410
     6.7892   7.2256   7.2892   7.9567   8.2898   8.5099   8.5859   8.9981
     9.1141   9.2908   9.5802   9.8172  10.2584  10.6130

          k = 0.5695 0.1967 0.0000 ( 12019 PWs)   bands (ev):

   -21.1887 -14.0226  -9.4265  -8.0652  -7.9373  -6.2060  -5.6116  -4.5881
    -2.9610  -0.3323   2.3532   2.7021   3.1932   4.1680   5.3062   5.8415
     6.7466   7.1931   7.2836   7.9116   8.2401   8.4652   8.5586   8.9631
     9.0755   9.2424   9.6268   9.8175  10.3579  10.5937

          k = 0.5699 0.1864 0.0000 ( 12030 PWs)   bands (ev):

   -21.1919 -14.0371  -9.4559  -8.0130  -7.9687  -6.2160  -5.4910  -4.6018
    -2.9830  -0.3356   2.3607   2.7374   3.1499   4.1683   5.1348   5.8719
     6.7068   7.1620   7.2775   7.8675   8.1929   8.4127   8.5444   8.9231
     9.0359   9.1912   9.6503   9.8431  10.4342  10.5787

          k = 0.5703 0.1760 0.0000 ( 12028 PWs)   bands (ev):

   -21.1952 -14.0514  -9.4840  -8.0240  -7.9355  -6.2262  -5.3702  -4.6133
    -3.0049  -0.3430   2.3472   2.8010   3.1053   4.1571   4.9656   5.9157
     6.6698   7.1364   7.2683   7.8246   8.1483   8.3591   8.5351   8.8818
     8.9969   9.1399   9.6466   9.8844  10.4694  10.5715

          k = 0.5708 0.1657 0.0000 ( 12020 PWs)   bands (ev):

   -21.1985 -14.0656  -9.5109  -8.0584  -7.8778  -6.2365  -5.2511  -4.6213
    -3.0266  -0.3543   2.3202   2.8838   3.0600   4.1314   4.8094   5.9652
     6.6356   7.1182   7.2562   7.7834   8.1064   8.3070   8.5266   8.8407
     8.9594   9.0900   9.6285   9.9201  10.4669  10.5609

          k = 0.5712 0.1553 0.0000 ( 12014 PWs)   bands (ev):

   -21.2017 -14.0794  -9.5364  -8.0925  -7.8194  -6.2469  -5.1366  -4.6235
    -3.0477  -0.3691   2.2858   2.9723   3.0199   4.0875   4.6751   6.0151
     6.6041   7.1088   7.2422   7.7441   8.0672   8.2572   8.5172   8.8001
     8.9234   9.0422   9.6026   9.9388  10.4466  10.5387

          k = 0.5716 0.1450 0.0000 ( 12000 PWs)   bands (ev):

   -21.2048 -14.0928  -9.5605  -8.1251  -7.7620  -6.2571  -5.0317  -4.6157
    -3.0682  -0.3869   2.2475   2.9611   3.0842   4.0234   4.5702   6.0613
     6.5754   7.1088   7.2277   7.7072   8.0309   8.2102   8.5060   8.7602
     8.8887   8.9972   9.5705   9.9391  10.4174  10.5079

          k = 0.5720 0.1346 0.0000 ( 12001 PWs)   bands (ev):

   -21.2079 -14.1057  -9.5832  -8.1557  -7.7062  -6.2671  -4.9446  -4.5905
    -3.0879  -0.4074   2.2070   2.9149   3.1813   3.9450   4.4957   6.1003
     6.5495   7.1170   7.2158   7.6730   7.9975   8.1663   8.4929   8.7210
     8.8543   8.9557   9.5323   9.9241  10.3825  10.4727

          k = 0.5724 0.1243 0.0000 ( 11994 PWs)   bands (ev):

   -21.2108 -14.1179  -9.6043  -8.1843  -7.6524  -6.2768  -4.8842  -4.5396
    -3.1066  -0.4299   2.1652   2.8673   3.2661   3.8694   4.4463   6.1295
     6.5262   7.1263   7.2141   7.6422   7.9673   8.1255   8.4781   8.6824
     8.8192   8.9181   9.4872   9.8986  10.3440  10.4357

          k = 0.5729 0.1139 0.0000 ( 11992 PWs)   bands (ev):

   -21.2136 -14.1295  -9.6238  -8.2107  -7.6010  -6.2861  -4.8511  -4.4635
    -3.1242  -0.4539   2.1226   2.8191   3.3178   3.8251   4.4146   6.1478
     6.5054   7.1250   7.2333   7.6156   7.9404   8.0883   8.4619   8.6442
     8.7827   8.8847   9.4354   9.8674  10.3044  10.3987

          k = 0.5733 0.1035 0.0000 ( 12004 PWs)   bands (ev):

   -21.2162 -14.1403  -9.6418  -8.2350  -7.5524  -6.2950  -4.8365  -4.3718
    -3.1406  -0.4788   2.0795   2.7706   3.3161   3.8376   4.3953   6.1551
     6.4869   7.1126   7.2707   7.5949   7.9173   8.0547   8.4447   8.6062
     8.7445   8.8552   9.3777   9.8344  10.2660  10.3625

          k = 0.5737 0.0932 0.0000 ( 12014 PWs)   bands (ev):

   -21.2186 -14.1502  -9.6582  -8.2570  -7.5071  -6.3034  -4.8319  -4.2742
    -3.1558  -0.5041   2.0360   2.7218   3.2704   3.8998   4.3864   6.1524
     6.4705   7.0951   7.3145   7.5829   7.8983   8.0254   8.4266   8.5683
     8.7052   8.8287   9.3165   9.8023  10.2301  10.3275

          k = 0.5741 0.0828 0.0000 ( 12005 PWs)   bands (ev):

   -21.2208 -14.1593  -9.6729  -8.2768  -7.4652  -6.3111  -4.8322  -4.1770
    -3.1696  -0.5291   1.9926   2.6734   3.2071   3.9839   4.3889   6.1413
     6.4557   7.0758   7.3527   7.5842   7.8844   8.0014   8.4075   8.5308
     8.6656   8.8045   9.2549   9.7726  10.1978  10.2939

          k = 0.5746 0.0725 0.0000 ( 12014 PWs)   bands (ev):

   -21.2228 -14.1674  -9.6859  -8.2944  -7.4274  -6.3181  -4.8348  -4.0840
    -3.1820  -0.5533   1.9496   2.6263   3.1433   4.0667   4.4071   6.1231
     6.4427   7.0561   7.3762   7.6012   7.8760   7.9849   8.3868   8.4946
     8.6263   8.7820   9.1963   9.7460  10.1692  10.2622

          k = 0.5750 0.0621 0.0000 ( 12016 PWs)   bands (ev):

   -21.2246 -14.1745  -9.6972  -8.3096  -7.3937  -6.3244  -4.8383  -3.9981
    -3.1929  -0.5760   1.9079   2.5818   3.0864   4.1321   4.4471   6.0995
     6.4312   7.0368   7.3843   7.6279   7.8723   7.9807   8.3634   8.4619
     8.5877   8.7609   9.1435   9.7225  10.1443  10.2331

          k = 0.5754 0.0518 0.0000 ( 12014 PWs)   bands (ev):

   -21.2261 -14.1806  -9.7068  -8.3225  -7.3646  -6.3299  -4.8420  -3.9214
    -3.2022  -0.5966   1.8686   2.5416   3.0389   4.1732   4.5092   6.0720
     6.4213   7.0186   7.3828   7.6527   7.8695   7.9958   8.3366   8.4349
     8.5494   8.7414   9.0983   9.7023  10.1231  10.2072

          k = 0.5758 0.0414 0.0000 ( 12018 PWs)   bands (ev):

   -21.2273 -14.1856  -9.7147  -8.3331  -7.3404  -6.3345  -4.8454  -3.8558
    -3.2099  -0.6145   1.8333   2.5071   3.0012   4.1952   4.5831   6.0426
     6.4131   7.0023   7.3773   7.6691   7.8645   8.0319   8.3081   8.4142
     8.5112   8.7239   9.0615   9.6853  10.1054  10.1851

          k = 0.5763 0.0311 0.0000 ( 12016 PWs)   bands (ev):

   -21.2283 -14.1895  -9.7208  -8.3413  -7.3212  -6.3382  -4.8482  -3.8028
    -3.2160  -0.6292   1.8035   2.4793   2.9728   4.2062   4.6554   6.0139
     6.4066   6.9885   7.3711   7.6775   7.8582   8.0825   8.2811   8.3979
     8.4733   8.7091   9.0335   9.6717  10.0914  10.1674

          k = 0.5767 0.0207 0.0000 ( 12022 PWs)   bands (ev):

   -21.2290 -14.1924  -9.7252  -8.3472  -7.3074  -6.3408  -4.8504  -3.7639
    -3.2204  -0.6401   1.7809   2.4592   2.9531   4.2116   4.7152   5.9892
     6.4020   6.9781   7.3658   7.6810   7.8525   8.1379   8.2587   8.3821
     8.4390   8.6979   9.0138   9.6617  10.0811  10.1546

          k = 0.5771 0.0104 0.0000 ( 12008 PWs)   bands (ev):

   -21.2294 -14.1941  -9.7279  -8.3507  -7.2991  -6.3424  -4.8517  -3.7401
    -3.2230  -0.6468   1.7668   2.4469   2.9416   4.2141   4.7546   5.9722
     6.3992   6.9715   7.3624   7.6822   7.8487   8.1887   8.2419   8.3618
     8.4168   8.6908   9.0023   9.6556  10.0748  10.1469

          k = 0.5775 0.0000 0.0000 ( 11998 PWs)   bands (ev):

   -21.2296 -14.1946  -9.7287  -8.3519  -7.2963  -6.3430  -4.8521  -3.7321
    -3.2239  -0.6491   1.7620   2.4428   2.9378   4.2148   4.7684   5.9661
     6.3982   6.9692   7.3612   7.6824   7.8474   8.2203   8.2273   8.3488
     8.4103   8.6884   8.9985   9.6536  10.0727  10.1443

          k = 0.5583 0.0000 0.0000 ( 12022 PWs)   bands (ev):

   -21.2312 -14.2029  -9.7232  -8.3375  -7.2950  -6.3500  -4.8651  -3.7290
    -3.2135  -0.6405   1.7660   2.4494   2.9378   4.2005   4.7718   5.9288
     6.4154   6.9106   7.3282   7.6030   8.0136   8.1010   8.2211   8.2600
     8.5144   8.7822   9.0779   9.5477  10.0422  10.2070

          k = 0.5390 0.0000 0.0000 ( 12024 PWs)   bands (ev):

   -21.2361 -14.2273  -9.7066  -8.2945  -7.2910  -6.3707  -4.9022  -3.7197
    -3.1846  -0.6142   1.7772   2.4691   2.9382   4.1598   4.7821   5.8389
     6.4080   6.8376   7.1425   7.6478   7.8468   8.1291   8.2237   8.3621
     8.5576   8.9951   9.2238   9.4137   9.8901  10.4333

          k = 0.5198 0.0000 0.0000 ( 12003 PWs)   bands (ev):

   -21.2441 -14.2671  -9.6792  -8.2243  -7.2843  -6.4044  -4.9589  -3.7043
    -3.1428  -0.5691   1.7936   2.5014   2.9392   4.0985   4.7991   5.7237
     6.3002   6.7783   7.0055   7.5555   7.6745   8.2175   8.2278   8.4647
     8.7340   9.0145   9.3453   9.5060   9.8214  10.6554

          k = 0.5005 0.0000 0.0000 ( 12007 PWs)   bands (ev):

   -21.2553 -14.3208  -9.6412  -8.1286  -7.2752  -6.4500  -5.0293  -3.6829
    -3.0956  -0.5035   1.8117   2.5454   2.9424   4.0242   4.8228   5.5948
     6.1308   6.5820   7.0633   7.3124   7.5875   8.2327   8.3431   8.5280
     8.8111   9.0385   9.3988   9.7335   9.9708  10.7409

          k = 0.4813 0.0000 0.0000 ( 12017 PWs)   bands (ev):

   -21.2693 -14.3868  -9.5930  -8.0101  -7.2635  -6.5053  -5.1082  -3.6554
    -3.0500  -0.4161   1.8268   2.5989   2.9507   3.9444   4.8529   5.4568
     5.9448   6.3552   7.0401   7.1507   7.5475   8.2379   8.3570   8.6022
     8.7395   9.1733   9.5276  10.0053  10.2377  10.6471

          k = 0.4620 0.0000 0.0000 ( 12035 PWs)   bands (ev):

   -21.2861 -14.4631  -9.5350  -7.8725  -7.2495  -6.5673  -5.1912  -3.6221
    -3.0116  -0.3062   1.8334   2.6582   2.9696   3.8657   4.8893   5.3113
     5.7583   6.1352   6.8104   7.0900   7.6339   8.2425   8.2547   8.5163
     8.8525   9.2616   9.8197  10.1927  10.5214  10.6162

          k = 0.4428 0.0000 0.0000 ( 12049 PWs)   bands (ev):

   -21.3053 -14.5479  -9.4679  -7.7214  -7.2332  -6.6311  -5.2751  -3.5831
    -2.9841  -0.1745   1.8263   2.7172   3.0067   3.7931   4.9316   5.1594
     5.5767   5.9303   6.5789   6.9740   7.7822   8.0984   8.2452   8.4265
     8.9352   9.4400  10.0616  10.2324  10.7503  10.8290

          k = 0.4235 0.0000 0.0000 ( 12059 PWs)   bands (ev):

   -21.3268 -14.6392  -9.3922  -7.5660  -7.2147  -6.6881  -5.3572  -3.5387
    -2.9693  -0.0235   1.8022   2.7707   3.0674   3.7308   4.9795   5.0023
     5.4002   5.7461   6.3552   6.8452   7.8820   7.9452   8.2447   8.3858
     8.9965   9.6438   9.9745  10.5163  10.7931  11.1023

          k = 0.4043 0.0000 0.0000 ( 12067 PWs)   bands (ev):

   -21.3503 -14.7351  -9.3087  -7.4243  -7.1944  -6.7211  -5.4357  -3.4889
    -2.9675   0.1419   1.7616   2.8168   3.1493   3.6845   4.8416   5.0324
     5.2266   5.5870   6.1402   6.7190   7.7422   7.9246   8.2391   8.4587
     9.0482   9.7095   9.9541  10.6292  10.9646  10.9885

          k = 0.3850 0.0000 0.0000 ( 12075 PWs)   bands (ev):

   -21.3754 -14.8341  -9.2183  -7.3283  -7.1722  -6.6995  -5.5079  -3.4342
    -2.9781   0.3137   1.7109   2.8537   3.2424   3.6633   4.6802   5.0542
     5.0898   5.4545   5.9345   6.6002   7.5699   7.8655   8.2266   8.6086
     9.0780   9.6077  10.0165  10.6440  10.6610  11.2318

          k = 0.3658 0.0000 0.0000 ( 12085 PWs)   bands (ev):

   -21.4018 -14.9346  -9.1223  -7.3034  -7.1485  -6.6011  -5.5699  -3.3747
    -2.9996   0.4783   1.6639   2.8757   3.3345   3.6804   4.5211   4.8842
     5.1508   5.3462   5.7387   6.4906   7.3987   7.7976   8.2046   8.7612
     9.0691   9.4956  10.0037  10.3303  10.6704  11.2941

          k = 0.3465 0.0000 0.0000 ( 12083 PWs)   bands (ev):

   -21.4293 -15.0354  -9.0220  -7.3335  -7.1234  -6.4494  -5.6134  -3.3110
    -3.0306   0.6124   1.6445   2.8740   3.4206   3.7420   4.3677   4.7201
     5.2145   5.2577   5.5538   6.3906   7.2310   7.7438   8.1707   8.8510
     9.0392   9.3799   9.9579  10.0092  10.6713  11.2057

          k = 0.3273 0.0000 0.0000 ( 12101 PWs)   bands (ev):

   -21.4575 -15.1353  -8.9194  -7.3887  -7.0973  -6.2927  -5.6190  -3.2434
    -3.0696   0.6858   1.6837   2.8453   3.5077   3.8329   4.2243   4.5673
     5.1836   5.2798   5.3829   6.3002   7.0682   7.7105   8.1218   8.7982
     9.0500   9.2358   9.7051   9.9342  10.7057  11.1320

          k = 0.3080 0.0000 0.0000 ( 12125 PWs)   bands (ev):

   -21.4861 -15.2332  -8.8170  -7.4504  -7.0703  -6.1827  -5.5521  -3.1723
    -3.1151   0.6825   1.7970   2.7946   3.5996   3.9194   4.1027   4.4362
     5.1117   5.2392   5.3451   6.2197   6.9116   7.6971   8.0547   8.6504
     9.0115   9.1042   9.4248   9.9639  10.7967  11.0736

          k = 0.2888 0.0000 0.0000 ( 12111 PWs)   bands (ev):

   -21.5147 -15.3283  -8.7183  -7.5078  -7.0428  -6.1460  -5.3948  -3.1658
    -3.0984   0.6173   1.9669   2.7318   3.6799   3.9252   4.0573   4.3500
     5.0061   5.1622   5.4086   6.1501   6.7625   7.6985   7.9662   8.4378
     8.8756   9.0486   9.1750  10.0443  10.9092  11.0308

          k = 0.2695 0.0000 0.0000 ( 12113 PWs)   bands (ev):

   -21.5431 -15.4199  -8.6281  -7.5528  -7.0150  -6.1595  -5.1750  -3.2206
    -3.0223   0.5149   2.1598   2.6712   3.6972   3.8657   4.0810   4.3359
     4.8751   5.1496   5.4680   6.0940   6.6219   7.7050   7.8545   8.1745
     8.7606   8.9616   8.9954  10.1536  10.9728  11.0029

          k = 0.2503 0.0000 0.0000 ( 12133 PWs)   bands (ev):

   -21.5709 -15.5074  -8.5526  -7.5780  -6.9872  -6.1954  -4.9240  -3.2784
    -2.9446   0.3927   2.3217   2.6504   3.6403   3.7945   4.1443   4.3700
     4.7476   5.1748   5.5205   6.0552   6.4909   7.6952   7.7211   7.9007
     8.6741   8.7880   8.9534  10.2715  10.9407  10.9885

          k = 0.2310 0.0000 0.0000 ( 12125 PWs)   bands (ev):

   -21.5979 -15.5901  -8.4978  -7.5769  -6.9598  -6.2397  -4.6587  -3.3378
    -2.8662   0.2612   2.3610   2.7456   3.5736   3.7007   4.2097   4.4355
     4.6345   5.2206   5.5632   6.0379   6.3712   7.5461   7.5724   7.7572
     8.6004   8.6536   8.9437  10.3811  10.8556  10.9848

          k = 0.2118 0.0000 0.0000 ( 12117 PWs)   bands (ev):

   -21.6237 -15.6676  -8.4673  -7.5460  -6.9331  -6.2864  -4.3890  -3.3969
    -2.7879   0.1267   2.3128   2.8971   3.5370   3.6044   4.2227   4.4963
     4.5918   5.2666   5.5925   6.0397   6.2661   7.2927   7.4181   7.7301
     8.5274   8.5547   8.9784  10.4664  10.7565  10.9883

          k = 0.1925 0.0000 0.0000 ( 12127 PWs)   bands (ev):

   -21.6482 -15.7394  -8.4599  -7.4873  -6.9074  -6.3325  -4.1238  -3.4513
    -2.7106  -0.0068   2.2444   2.9982   3.4907   3.5958   4.1929   4.4327
     4.7189   5.2973   5.6053   6.0372   6.1831   7.0798   7.2687   7.7097
     8.4523   8.4866   9.0542  10.5105  10.6609  10.9947

          k = 0.1733 0.0000 0.0000 ( 12113 PWs)   bands (ev):

   -21.6711 -15.8054  -8.4700  -7.4073  -6.8830  -6.3765  -3.8827  -3.4850
    -2.6356  -0.1361   2.1736   3.0173   3.4023   3.7195   4.1411   4.3742
     4.8580   5.3124   5.5994   5.9969   6.1185   6.9601   7.1327   7.6946
     8.3772   8.4453   9.1587  10.4889  10.5927  10.9992

          k = 0.1540 0.0000 0.0000 ( 12115 PWs)   bands (ev):

   -21.6922 -15.8651  -8.4911  -7.3141  -6.8602  -6.4173  -3.7395  -3.4275
    -2.5637  -0.2588   2.1058   2.9886   3.3189   3.8761   4.0823   4.3429
     4.9589   5.3254   5.5745   5.9317   6.0448   6.9520   7.0153   7.6962
     8.3043   8.4278   9.2768  10.4066  10.5551  10.9967

          k = 0.1348 0.0000 0.0000 ( 12115 PWs)   bands (ev):

   -21.7112 -15.9183  -8.5175  -7.2149  -6.8392  -6.4544  -3.7389  -3.2370
    -2.4964  -0.3728   2.0433   2.9439   3.2439   3.9749   4.0468   4.3640
     4.9856   5.3441   5.5330   5.8591   6.0002   6.9182   7.0098   7.7309
     8.2354   8.4313   9.3911  10.3089  10.5193  10.9831

          k = 0.1155 0.0000 0.0000 ( 12127 PWs)   bands (ev):

   -21.7281 -15.9648  -8.5452  -7.1157  -6.8205  -6.4872  -3.7830  -3.0149
    -2.4346  -0.4763   1.9875   2.8968   3.1783   3.9430   4.0655   4.4558
     4.9455   5.3456   5.4796   5.7901   6.0377   6.8406   7.0738   7.8138
     8.1721   8.4521   9.4788  10.2140  10.4914  10.9557

          k = 0.0963 0.0000 0.0000 ( 12107 PWs)   bands (ev):

   -21.7426 -16.0044  -8.5717  -7.0217  -6.8042  -6.5155  -3.8341  -2.8023
    -2.3798  -0.5676   1.9392   2.8530   3.1224   3.8942   4.0558   4.5490
     4.8991   5.3240   5.4207   5.7331   6.1475   6.7800   7.1141   7.9405
     8.1205   8.4861   9.5133  10.1335  10.4889  10.9152

          k = 0.0770 0.0000 0.0000 ( 12083 PWs)   bands (ev):

   -21.7547 -16.0370  -8.5951  -6.9374  -6.7905  -6.5389  -3.8829  -2.6125
    -2.3330  -0.6452   1.8989   2.8150   3.0765   3.8514   4.0313   4.5452
     4.9346   5.2970   5.3630   5.6869   6.2910   6.7337   7.1309   8.0160
     8.1580   8.5276   9.4818  10.0708  10.5239  10.8655

          k = 0.0578 0.0000 0.0000 ( 12087 PWs)   bands (ev):

   -21.7642 -16.0625  -8.6142  -6.8667  -6.7796  -6.5574  -3.9251  -2.4540
    -2.2954  -0.7079   1.8671   2.7843   3.0406   3.8172   4.0030   4.4721
     5.0300   5.2746   5.3121   5.6503   6.4369   6.6995   7.1341   7.9804
     8.3212   8.5705   9.4021  10.0184  10.5897  10.8133

          k = 0.0385 0.0000 0.0000 ( 12059 PWs)   bands (ev):

   -21.7710 -16.0807  -8.6284  -6.8132  -6.7717  -6.5707  -3.9577  -2.3341
    -2.2678  -0.7542   1.8441   2.7618   3.0150   3.7922   3.9766   4.3993
     5.1194   5.2602   5.2726   5.6230   6.5627   6.6759   7.1319   7.9383
     8.4849   8.6078   9.3062   9.9725  10.6635  10.7673

          k = 0.0193 0.0000 0.0000 ( 12051 PWs)   bands (ev):

   -21.7751 -16.0917  -8.6370  -6.7798  -6.7670  -6.5788  -3.9783  -2.2592
    -2.2509  -0.7827   1.8303   2.7480   2.9995   3.7771   3.9571   4.3517
     5.1756   5.2476   5.2561   5.6056   6.6492   6.6619   7.1289   7.9070
     8.6112   8.6333   9.2238   9.9386  10.7205  10.7356

          k = 0.0000 0.0000 0.0000 ( 12063 PWs)   bands (ev):

   -21.7765 -16.0953  -8.6400  -6.7684  -6.7654  -6.5815  -3.9854  -2.2452
    -2.2336  -0.7924   1.8256   2.7433   2.9944   3.7721   3.9498   4.3355
     5.1922   5.2391   5.2580   5.5995   6.6573   6.6802   7.1277   7.8953
     8.6424   8.6617   9.1888   9.9259  10.7243  10.7420

     Writing all to output data dir ./work/Al2SO.save/
 
     init_run     :      3.63s CPU      3.72s WALL (       1 calls)
     electrons    :     74.23s CPU     87.54s WALL (       1 calls)

     Called by init_run:
     wfcinit      :      0.00s CPU      0.00s WALL (       1 calls)
     potinit      :      3.41s CPU      3.45s WALL (       1 calls)
     hinit0       :      0.13s CPU      0.16s WALL (       1 calls)

     Called by electrons:
     c_bands      :     74.23s CPU     87.54s WALL (       1 calls)
     v_of_rho     :      3.38s CPU      3.40s WALL (       1 calls)
     newd         :      0.04s CPU      0.07s WALL (       1 calls)
     PAW_pot      :      0.04s CPU      0.04s WALL (       1 calls)
     vdW_kernel   :      3.32s CPU      3.33s WALL (       1 calls)

     Called by c_bands:
     init_us_2    :      0.03s CPU      0.03s WALL (      91 calls)
     init_us_2:cp :      0.03s CPU      0.03s WALL (      91 calls)
     cegterg      :     72.54s CPU     85.54s WALL (     352 calls)

     Called by *egterg:
     cdiaghg      :      4.87s CPU      5.24s WALL (    6306 calls)
     h_psi        :     48.74s CPU     60.40s WALL (    6658 calls)
     s_psi        :      2.37s CPU      2.68s WALL (    6658 calls)
     g_psi        :      0.29s CPU      0.30s WALL (    6215 calls)

     Called by h_psi:
     h_psi:calbec :      2.75s CPU      3.42s WALL (    6658 calls)
     vloc_psi     :     42.75s CPU     53.19s WALL (    6658 calls)
     add_vuspsi   :      2.83s CPU      3.37s WALL (    6658 calls)

     General routines
     calbec       :      2.74s CPU      3.40s WALL (    6658 calls)
     fft          :      0.02s CPU      0.04s WALL (      62 calls)
     fftw         :     40.02s CPU     49.90s WALL (  225398 calls)
     davcio       :      0.03s CPU      0.05s WALL (     182 calls)
 
     Parallel routines
 
     PWSCF        :   1m18.13s CPU   1m31.99s WALL

 
   This run was terminated on:   3:36:42  13Jun2023            

=------------------------------------------------------------------------------=
   JOB DONE.
=------------------------------------------------------------------------------=
