
     Program PWSCF v.7.0 starts on 13Jun2023 at  3:34:24 

     This program is part of the open-source Quantum ESPRESSO suite
     for quantum simulation of materials; please cite
         "P. Giannozzi et al., J. Phys.:Condens. Matter 21 395502 (2009);
         "P. Giannozzi et al., J. Phys.:Condens. Matter 29 465901 (2017);
         "P. Giannozzi et al., J. Chem. Phys. 152 154105 (2020);
          URL http://www.quantum-espresso.org", 
     in publications or presentations arising from this work. More details at
     http://www.quantum-espresso.org/quote

     Parallel version (MPI), running on    10 processors

     MPI processes distributed on     1 nodes
     R & G space division:  proc/nbgrp/npool/nimage =      10
     15026 MiB available memory on the printing compute node when the environment starts
 
     Waiting for input...
     Reading input from standard input

     Current dimensions of program PWSCF are:
     Max number of different atomic species (ntypx) = 10
     Max number of k-points (npk) =  40000
     Max angular momentum in pseudopotentials (lmaxx) =  4
     Message from routine volume:
     axis vectors are left-handed
     file Al.pbe-n-kjpaw_psl.1.0.0.UPF: wavefunction(s)  3S 3P renormalized
     file O.pbe-n-kjpaw_psl.1.0.0.UPF: wavefunction(s)  2S 2P renormalized
     file S.pbe-n-kjpaw_psl.1.0.0.UPF: wavefunction(s)  3S 3P renormalized

     IMPORTANT: XC functional enforced from input :
     Exchange-correlation= VDW-DF2-B86R
                           (   1   4  26   0   2   0   0)
     Any further DFT definition will be discarded
     Please, verify this is what you really want

     Message from routine setup:
     using ibrav=0 with symmetry is DISCOURAGED, use correct ibrav instead

     Subspace diagonalization in iterative solution of the eigenvalue problem:
     a serial algorithm will be used

 
     Parallelization info
     --------------------
     sticks:   dense  smooth     PW     G-vecs:    dense   smooth      PW
     Min          62      62     19                 9614     9614    1695
     Max          63      63     20                 9626     9626    1716
     Sum         621     621    199                96189    96189   17133
 
     Using Slab Decomposition
 


     bravais-lattice index     =            0
     lattice parameter (alat)  =       6.1245  a.u.
     unit-cell volume          =    1535.6018 (a.u.)^3
     number of atoms/cell      =            4
     number of atomic types    =            3
     number of electrons       =        18.00
     number of Kohn-Sham states=           30
     kinetic-energy cutoff     =      60.0000  Ry
     charge density cutoff     =     240.0000  Ry
     scf convergence threshold =      1.0E-08
     mixing beta               =       0.5000
     number of iterations used =            8  plain     mixing
     Exchange-correlation= VDW-DF2-B86R
                           (   1   4  26   0   2   0   0)

     celldm(1)=   6.124520  celldm(2)=   0.000000  celldm(3)=   0.000000
     celldm(4)=   0.000000  celldm(5)=   0.000000  celldm(6)=   0.000000

     crystal axes: (cart. coord. in units of alat)
               a(1) = (   0.865761   0.500458   0.000000 )  
               a(2) = (   0.865761  -0.500458   0.000000 )  
               a(3) = (   0.000000   0.000000   7.713773 )  

     reciprocal axes: (cart. coord. in units 2 pi/alat)
               b(1) = (  0.577527  0.999084  0.000000 )  
               b(2) = (  0.577527 -0.999084  0.000000 )  
               b(3) = (  0.000000  0.000000  0.129638 )  


     PseudoPot. # 1 for Al read from file:
     /home/mainadmin/research/danu/pseudo/Al.pbe-n-kjpaw_psl.1.0.0.UPF
     MD5 check sum: 502b6b27b9c6270cab5dd1084b96fa6d
     Pseudo is Projector augmented-wave + core cor, Zval =  3.0
     Generated using &quot;atomic&quot; code by A. Dal Corso  v.6.3
     Shape of augmentation charge: PSQ
     Using radial grid of 1135 points,  6 beta functions with: 
                l(1) =   0
                l(2) =   0
                l(3) =   1
                l(4) =   1
                l(5) =   2
                l(6) =   2
     Q(r) pseudized with 0 coefficients 


     PseudoPot. # 2 for O  read from file:
     /home/mainadmin/research/danu/pseudo/O.pbe-n-kjpaw_psl.1.0.0.UPF
     MD5 check sum: e99d9cef9b487d1ca56f5b95ecd0fd7a
     Pseudo is Projector augmented-wave + core cor, Zval =  6.0
     Generated using &quot;atomic&quot; code by A. Dal Corso  v.6.3
     Shape of augmentation charge: PSQ
     Using radial grid of 1095 points,  4 beta functions with: 
                l(1) =   0
                l(2) =   0
                l(3) =   1
                l(4) =   1
     Q(r) pseudized with 0 coefficients 


     PseudoPot. # 3 for S  read from file:
     /home/mainadmin/research/danu/pseudo/S.pbe-n-kjpaw_psl.1.0.0.UPF
     MD5 check sum: fb45dfebcf3e72a4e1bd4a866ec2e262
     Pseudo is Projector augmented-wave + core cor, Zval =  6.0
     Generated using &quot;atomic&quot; code by A. Dal Corso  v.6.3
     Shape of augmentation charge: PSQ
     Using radial grid of 1151 points,  6 beta functions with: 
                l(1) =   0
                l(2) =   0
                l(3) =   1
                l(4) =   1
                l(5) =   2
                l(6) =   2
     Q(r) pseudized with 0 coefficients 


     atomic species   valence    mass     pseudopotential
        Al             3.00    26.98100     Al( 1.00)
        O              6.00    15.99900     O ( 1.00)
        S              6.00    32.06500     S ( 1.00)

      2 Sym. Ops. (no inversion) found



   Cartesian axes

     site n.     atom                  positions (alat units)
         1           O   tau(   1) = (   1.1544229   0.0000000   3.2464034  )
         2           Al  tau(   2) = (   0.5777197   0.0000000   3.4120502  )
         3           Al  tau(   3) = (   0.5767525   0.0000000   4.2159765  )
         4           S   tau(   4) = (   1.1541478   0.0000000   4.5934659  )

     number of k points=    49
                       cart. coord. in units 2pi/alat
        k(    1) = (   0.0000000   0.0000000   0.0000000), wk =   0.0118343
        k(    2) = (   0.0444251  -0.0768527   0.0000000), wk =   0.0473373
        k(    3) = (   0.0888503  -0.1537053   0.0000000), wk =   0.0473373
        k(    4) = (   0.1332754  -0.2305580   0.0000000), wk =   0.0473373
        k(    5) = (   0.1777005  -0.3074106   0.0000000), wk =   0.0473373
        k(    6) = (   0.2221257  -0.3842633   0.0000000), wk =   0.0473373
        k(    7) = (   0.2665508  -0.4611159   0.0000000), wk =   0.0473373
        k(    8) = (   0.0888503   0.0000000   0.0000000), wk =   0.0236686
        k(    9) = (   0.1332754  -0.0768527   0.0000000), wk =   0.0473373
        k(   10) = (   0.1777005  -0.1537053   0.0000000), wk =   0.0473373
        k(   11) = (   0.2221257  -0.2305580   0.0000000), wk =   0.0473373
        k(   12) = (   0.2665508  -0.3074106   0.0000000), wk =   0.0473373
        k(   13) = (   0.3109760  -0.3842633   0.0000000), wk =   0.0473373
        k(   14) = (  -0.2221257   0.5379686   0.0000000), wk =   0.0473373
        k(   15) = (  -0.1777005   0.4611159   0.0000000), wk =   0.0473373
        k(   16) = (  -0.1332754   0.3842633   0.0000000), wk =   0.0473373
        k(   17) = (  -0.0888503   0.3074106   0.0000000), wk =   0.0473373
        k(   18) = (  -0.0444251   0.2305580   0.0000000), wk =   0.0473373
        k(   19) = (   0.0000000   0.1537053   0.0000000), wk =   0.0236686
        k(   20) = (   0.1777005   0.0000000   0.0000000), wk =   0.0236686
        k(   21) = (   0.2221257  -0.0768527   0.0000000), wk =   0.0473373
        k(   22) = (   0.2665508  -0.1537053   0.0000000), wk =   0.0473373
        k(   23) = (   0.3109760  -0.2305580   0.0000000), wk =   0.0473373
        k(   24) = (   0.3554011  -0.3074106   0.0000000), wk =   0.0473373
        k(   25) = (  -0.1777005   0.6148212   0.0000000), wk =   0.0473373
        k(   26) = (  -0.1332754   0.5379686   0.0000000), wk =   0.0473373
        k(   27) = (  -0.0888503   0.4611159   0.0000000), wk =   0.0473373
        k(   28) = (  -0.0444251   0.3842633   0.0000000), wk =   0.0473373
        k(   29) = (   0.0000000   0.3074106   0.0000000), wk =   0.0236686
        k(   30) = (   0.2665508   0.0000000   0.0000000), wk =   0.0236686
        k(   31) = (   0.3109760  -0.0768527   0.0000000), wk =   0.0473373
        k(   32) = (   0.3554011  -0.1537053   0.0000000), wk =   0.0473373
        k(   33) = (   0.3998262  -0.2305580   0.0000000), wk =   0.0473373
        k(   34) = (  -0.1332754   0.6916739   0.0000000), wk =   0.0473373
        k(   35) = (  -0.0888503   0.6148212   0.0000000), wk =   0.0473373
        k(   36) = (  -0.0444251   0.5379686   0.0000000), wk =   0.0473373
        k(   37) = (   0.0000000   0.4611159   0.0000000), wk =   0.0236686
        k(   38) = (   0.3554011   0.0000000   0.0000000), wk =   0.0236686
        k(   39) = (   0.3998262  -0.0768527   0.0000000), wk =   0.0473373
        k(   40) = (   0.4442514  -0.1537053   0.0000000), wk =   0.0473373
        k(   41) = (  -0.0888503   0.7685265   0.0000000), wk =   0.0473373
        k(   42) = (  -0.0444251   0.6916739   0.0000000), wk =   0.0473373
        k(   43) = (   0.0000000   0.6148212   0.0000000), wk =   0.0236686
        k(   44) = (   0.4442514   0.0000000   0.0000000), wk =   0.0236686
        k(   45) = (   0.4886765  -0.0768527   0.0000000), wk =   0.0473373
        k(   46) = (  -0.0444251   0.8453792   0.0000000), wk =   0.0473373
        k(   47) = (   0.0000000   0.7685265   0.0000000), wk =   0.0236686
        k(   48) = (   0.5331016   0.0000000   0.0000000), wk =   0.0236686
        k(   49) = (   0.0000000   0.9222318   0.0000000), wk =   0.0236686

     Dense  grid:    96189 G-vectors     FFT dimensions: (  32,  32, 240)

     Estimated max dynamical RAM per process >      66.32 MB

     Estimated total dynamical RAM >     663.17 MB

     Check: negative core charge=   -0.000002

     Initial potential from superposition of free atoms

     starting charge      17.9954, renormalised to      18.0000

     negative rho (up, down):  1.005E-03 0.000E+00


     %%%%%%%%%%%%%%%%%%%%%%%%%%%%%%%%%%%%%%%%%%%%%%%%%%%%%%%%%%%%%%%%%%%%%%%%
     %                                                                      %
     % You are using vdW-DF, which was implemented by the Thonhauser group. %
     % Please cite the following two papers that made this development      %
     % possible and the two reviews that describe the various versions:     %
     %                                                                      %
     %   T. Thonhauser et al., PRL 115, 136402 (2015).                      %
     %   T. Thonhauser et al., PRB 76, 125112 (2007).                       %
     %   K. Berland et al., Rep. Prog. Phys. 78, 066501 (2015).             %
     %   D.C. Langreth et al., J. Phys.: Condens. Matter 21, 084203 (2009). %
     %                                                                      %
     %                                                                      %
     % If you are calculating the stress with vdW-DF, please also cite:     %
     %                                                                      %
     %   R. Sabatini et al., J. Phys.: Condens. Matter 24, 424209 (2012).   %
     %                                                                      %
     %%%%%%%%%%%%%%%%%%%%%%%%%%%%%%%%%%%%%%%%%%%%%%%%%%%%%%%%%%%%%%%%%%%%%%%%


     Starting wfcs are   16 randomized atomic wfcs +   14 random wfcs
     Checking if some PAW data can be deallocated... 

     total cpu time spent up to now is        4.8 secs

     Self-consistent Calculation

     iteration #  1     ecut=    60.00 Ry     beta= 0.50
     Davidson diagonalization with overlap
     ethr =  1.00E-02,  avg # of iterations =  8.2

     negative rho (up, down):  1.093E-03 0.000E+00

     total cpu time spent up to now is       11.9 secs

     total energy              =    -186.38990389 Ry
     estimated scf accuracy    <       0.58593776 Ry

     iteration #  2     ecut=    60.00 Ry     beta= 0.50
     Davidson diagonalization with overlap
     ethr =  3.26E-03,  avg # of iterations =  2.0

     negative rho (up, down):  9.777E-04 0.000E+00

     total cpu time spent up to now is       15.0 secs

     total energy              =    -186.52437150 Ry
     estimated scf accuracy    <       0.22354618 Ry

     iteration #  3     ecut=    60.00 Ry     beta= 0.50
     Davidson diagonalization with overlap
     ethr =  1.24E-03,  avg # of iterations =  2.6

     negative rho (up, down):  1.001E-03 0.000E+00

     total cpu time spent up to now is       18.1 secs

     total energy              =    -186.57606702 Ry
     estimated scf accuracy    <       0.03754952 Ry

     iteration #  4     ecut=    60.00 Ry     beta= 0.50
     Davidson diagonalization with overlap
     ethr =  2.09E-04,  avg # of iterations =  6.9

     negative rho (up, down):  1.058E-03 0.000E+00

     total cpu time spent up to now is       22.1 secs

     total energy              =    -186.58489348 Ry
     estimated scf accuracy    <       0.01107326 Ry

     iteration #  5     ecut=    60.00 Ry     beta= 0.50
     Davidson diagonalization with overlap
     ethr =  6.15E-05,  avg # of iterations =  3.5

     negative rho (up, down):  1.151E-03 0.000E+00

     total cpu time spent up to now is       25.5 secs

     total energy              =    -186.58631454 Ry
     estimated scf accuracy    <       0.00556116 Ry

     iteration #  6     ecut=    60.00 Ry     beta= 0.50
     Davidson diagonalization with overlap
     ethr =  3.09E-05,  avg # of iterations =  2.8

     negative rho (up, down):  1.163E-03 0.000E+00

     total cpu time spent up to now is       28.5 secs

     total energy              =    -186.58714801 Ry
     estimated scf accuracy    <       0.00021727 Ry

     iteration #  7     ecut=    60.00 Ry     beta= 0.50
     Davidson diagonalization with overlap
     c_bands:  1 eigenvalues not converged
     c_bands:  1 eigenvalues not converged
     ethr =  1.21E-06,  avg # of iterations =  8.6

     negative rho (up, down):  1.173E-03 0.000E+00

     total cpu time spent up to now is       33.2 secs

     total energy              =    -186.58722471 Ry
     estimated scf accuracy    <       0.00000622 Ry

     iteration #  8     ecut=    60.00 Ry     beta= 0.50
     Davidson diagonalization with overlap
     ethr =  3.45E-08,  avg # of iterations =  3.5

     negative rho (up, down):  1.179E-03 0.000E+00

     total cpu time spent up to now is       36.5 secs

     total energy              =    -186.58722775 Ry
     estimated scf accuracy    <       0.00000093 Ry

     iteration #  9     ecut=    60.00 Ry     beta= 0.50
     Davidson diagonalization with overlap
     ethr =  5.19E-09,  avg # of iterations =  3.5

     negative rho (up, down):  1.179E-03 0.000E+00

     total cpu time spent up to now is       39.8 secs

     total energy              =    -186.58722808 Ry
     estimated scf accuracy    <       0.00000002 Ry

     iteration # 10     ecut=    60.00 Ry     beta= 0.50
     Davidson diagonalization with overlap
     ethr =  1.20E-10,  avg # of iterations =  4.1

     negative rho (up, down):  1.179E-03 0.000E+00

     total cpu time spent up to now is       43.5 secs

     End of self-consistent calculation

          k = 0.0000 0.0000 0.0000 ( 12063 PWs)   bands (ev):

   -21.7757 -16.0949  -8.6394  -6.7676  -6.7645  -6.5810  -3.9849  -2.2448
    -2.2332  -0.7922   1.8254   2.7434   2.9942   3.7719   3.9499   4.3359
     5.1923   5.2396   5.2585   5.5994   6.6575   6.6804   7.1276   7.8953
     8.6429   8.6622   9.1890   9.9258  10.7247  10.7423

          k = 0.0444-0.0769 0.0000 ( 12091 PWs)   bands (ev):

   -21.7468 -16.0175  -8.5808  -6.9851  -6.7997  -6.5247  -3.8529  -2.7344
    -2.3509  -0.5988   1.9224   2.8376   3.1032   3.8765   4.0479   4.5692
     4.8845   5.3119   5.4123   5.7130   6.1869   6.7774   7.1216   7.9814
     8.1086   8.5176   9.5054  10.1070  10.4912  10.9097

          k = 0.0889-0.1537 0.0000 ( 12125 PWs)   bands (ev):

   -21.6655 -15.7910  -8.4665  -7.4251  -6.8889  -6.3666  -3.9406  -3.4823
    -2.6411  -0.1061   2.1890   3.0182   3.4216   3.6845   4.1532   4.3843
     4.8265   5.3078   5.6172   6.0050   6.1297   6.9694   7.1768   7.6935
     8.3932   8.4690   9.1295  10.4983  10.6016  11.0123

          k = 0.1333-0.2306 0.0000 ( 12119 PWs)   bands (ev):

   -21.5473 -15.4348  -8.6147  -7.5579  -7.0101  -6.1653  -5.1444  -3.2298
    -2.9971   0.4983   2.1863   2.6626   3.6919   3.8553   4.0888   4.3368
     4.8530   5.1494   5.4936   6.0837   6.5995   7.7028   7.8480   8.1250
     8.7435   8.9446   8.9843  10.1700  10.9728  11.0151

          k = 0.1777-0.3074 0.0000 ( 12090 PWs)   bands (ev):

   -21.4168 -14.9913  -9.0677  -7.3172  -7.1336  -6.5277  -5.5984  -3.3262
    -3.0169   0.5563   1.6496   2.8757   3.3882   3.7072   4.4345   4.7922
     5.2038   5.2934   5.6345   6.4315   7.3054   7.7626   8.2032   8.8195
     9.0503   9.4325   9.9755  10.1612  10.6643  11.2593

          k = 0.2221-0.3843 0.0000 ( 12053 PWs)   bands (ev):

   -21.3044 -14.5448  -9.4722  -7.7382  -7.2322  -6.6283  -5.2712  -3.5706
    -2.9893  -0.1842   1.8346   2.7096   3.0101   3.7980   4.9483   5.1666
     5.5859   5.9398   6.5918   6.9789   7.7654   8.1068   8.2619   8.4274
     8.9349   9.4140  10.0499  10.2110  10.7269  10.8033

          k = 0.2666-0.4611 0.0000 ( 12030 PWs)   bands (ev):

   -21.2391 -14.2427  -9.6983  -8.2796  -7.2865  -6.3821  -4.9217  -3.6994
    -3.1773  -0.5992   1.7887   2.4807   2.9448   4.1382   4.8074   5.8001
     6.3784   6.8213   7.0745   7.6442   7.7671   8.1409   8.2424   8.4058
     8.5888   9.0310   9.2484   9.4107   9.8458  10.4987

          k = 0.0889 0.0000 0.0000 ( 12083 PWs)   bands (ev):

   -21.7467 -16.0173  -8.5806  -6.9871  -6.7977  -6.5245  -3.8529  -2.7257
    -2.3603  -0.5989   1.9225   2.8377   3.1034   3.8767   4.0474   4.5617
     4.9009   5.3136   5.3985   5.7141   6.2010   6.7609   7.1229   7.9886
     8.1130   8.5019   9.5089  10.1075  10.4980  10.8972

          k = 0.1333-0.0769 0.0000 ( 12107 PWs)   bands (ev):

   -21.6915 -15.8651  -8.4901  -7.3040  -6.8707  -6.4170  -3.7287  -3.4025
    -2.6124  -0.2560   2.1066   3.0027   3.3182   3.9881   4.0913   4.3557
     5.0259   5.2537   5.5321   5.7239   5.9696   7.0847   7.1512   7.6758
     8.1704   8.3642   9.5520  10.3723  10.4916  10.8235

          k = 0.1777-0.1537 0.0000 ( 12098 PWs)   bands (ev):

   -21.5916 -15.5730  -8.4948  -7.5631  -7.0044  -6.2283  -4.6381  -3.3202
    -3.0375   0.3163   2.4111   2.8764   3.5560   3.7207   4.2620   4.5942
     4.7557   4.9459   5.5583   6.0094   6.3945   6.9075   7.4126   8.0456
     8.6855   8.8473   9.2132  10.2065  10.7427  10.9965

          k = 0.2221-0.2306 0.0000 ( 12103 PWs)   bands (ev):

   -21.4669 -15.1705  -8.8453  -7.4011  -7.1585  -6.1966  -5.5537  -3.4781
    -3.0705   0.8320   1.8534   2.8379   3.6777   3.9329   4.1985   4.5303
     4.9068   5.2644   5.5557   6.2272   7.0216   7.6167   7.6942   8.3105
     8.9846   9.1926   9.8084  10.2808  10.8464  11.3079

          k = 0.2666-0.3074 0.0000 ( 12052 PWs)   bands (ev):

   -21.3449 -14.7180  -9.2697  -7.3786  -7.2988  -6.6843  -5.4160  -3.8261
    -2.9415   0.3198   1.8989   2.8566   3.4721   3.5727   4.6130   5.0788
     5.2591   5.5933   6.1803   6.7479   7.6605   7.9311   8.0385   8.7117
     9.0220   9.6149  10.0604  10.4969  10.5878  11.1649

          k = 0.3110-0.3843 0.0000 ( 12037 PWs)   bands (ev):

   -21.2556 -14.3292  -9.5716  -8.0090  -7.4052  -6.4503  -5.0488  -4.0424
    -3.0345  -0.3319   2.0360   2.6834   3.2481   3.7970   4.5276   5.6214
     6.0821   6.5130   7.1027   7.2942   7.4939   7.9990   8.4470   8.7888
     8.9922   9.2621   9.5534   9.9765  10.2476  10.7054

          k =-0.2221 0.5380 0.0000 ( 12020 PWs)   bands (ev):

   -21.2227 -14.1684  -9.6795  -8.2911  -7.4406  -6.3172  -4.8365  -4.1087
    -3.1816  -0.5400   1.9697   2.6521   3.1797   4.0397   4.4027   6.1302
     6.4390   7.0589   7.3666   7.5908   7.8825   7.9739   8.3934   8.5142
     8.6296   8.7841   9.2186   9.7572  10.1716  10.2724

          k =-0.1777 0.4611 0.0000 ( 12039 PWs)   bands (ev):

   -21.2558 -14.3299  -9.5706  -8.0077  -7.4065  -6.4507  -5.0497  -4.0437
    -3.0342  -0.3311   2.0365   2.6844   3.2492   3.7972   4.5256   5.6214
     6.0802   6.5110   7.1019   7.2937   7.4939   7.9980   8.4461   8.7897
     8.9951   9.2645   9.5558   9.9780  10.2496  10.7054

          k =-0.1333 0.3843 0.0000 ( 12053 PWs)   bands (ev):

   -21.3453 -14.7191  -9.2678  -7.3787  -7.2998  -6.6841  -5.4167  -3.8288
    -2.9416   0.3215   1.8998   2.8575   3.4725   3.5731   4.6130   5.0769
     5.2575   5.5928   6.1785   6.7479   7.6574   7.9319   8.0390   8.7124
     9.0397   9.6159  10.0618  10.5026  10.5929  11.1683

          k =-0.0889 0.3074 0.0000 ( 12107 PWs)   bands (ev):

   -21.4673 -15.1716  -8.8432  -7.4018  -7.1607  -6.1963  -5.5529  -3.4808
    -3.0709   0.8329   1.8559   2.8372   3.6747   3.9349   4.1998   4.5287
     4.9059   5.2631   5.5572   6.2273   7.0195   7.6213   7.7126   8.3117
     8.9843   9.1926   9.8062  10.2697  10.8462  11.3075

          k =-0.0444 0.2306 0.0000 ( 12096 PWs)   bands (ev):

   -21.5920 -15.5738  -8.4940  -7.5618  -7.0073  -6.2290  -4.6379  -3.3202
    -3.0382   0.3169   2.4109   2.8771   3.5548   3.7197   4.2609   4.5940
     4.7584   4.9397   5.5669   6.0163   6.3929   6.9175   7.4143   8.0415
     8.6836   8.8376   9.2168  10.2032  10.7450  10.9953

          k = 0.0000 0.1537 0.0000 ( 12103 PWs)   bands (ev):

   -21.6918 -15.8656  -8.4905  -7.3012  -6.8735  -6.4175  -3.7302  -3.4059
    -2.6070  -0.2556   2.1062   3.0023   3.3176   3.9856   4.0905   4.3544
     5.0404   5.2529   5.5292   5.7205   5.9676   7.0952   7.1467   7.6746
     8.1701   8.3650   9.5546  10.3756  10.4911  10.8232

          k = 0.1777 0.0000 0.0000 ( 12121 PWs)   bands (ev):

   -21.6651 -15.7902  -8.4660  -7.4265  -6.8877  -6.3660  -3.9334  -3.4807
    -2.6522  -0.1066   2.1897   3.0189   3.4224   3.6857   4.1541   4.3858
     4.8281   5.3097   5.6030   6.0096   6.1338   6.9778   7.1629   7.6971
     8.3943   8.4530   9.1330  10.5010  10.6046  10.9989

          k = 0.2221-0.0769 0.0000 ( 12096 PWs)   bands (ev):

   -21.5913 -15.5724  -8.4945  -7.5632  -7.0046  -6.2277  -4.6329  -3.3196
    -3.0454   0.3159   2.4121   2.8787   3.5566   3.7213   4.2625   4.5946
     4.7528   4.9406   5.5592   6.0134   6.3948   6.9120   7.4082   8.0425
     8.6850   8.8445   9.2151  10.2013  10.7429  10.9949

          k = 0.2666-0.1537 0.0000 ( 12093 PWs)   bands (ev):

   -21.4846 -15.2323  -8.7413  -7.4225  -7.2215  -6.1126  -5.3708  -3.7226
    -3.0897   0.9191   2.1751   2.7880   3.4500   4.0081   4.4250   4.6959
     4.8530   5.2199   5.9311   6.1508   6.2802   6.9282   7.4798   8.3388
     8.9951   9.2022   9.6658  10.4322  11.0671  11.4523

          k = 0.3110-0.2306 0.0000 ( 12044 PWs)   bands (ev):

   -21.3677 -14.8131  -9.0800  -7.4711  -7.1899  -6.5061  -5.4477  -4.3486
    -2.9150   1.0359   1.7572   2.9720   3.0796   4.2719   4.6599   5.0752
     5.2258   5.5579   5.9742   6.5628   7.2380   7.4246   7.8390   7.9868
     9.1965   9.5326   9.9568  10.7230  11.2305  11.3892

          k = 0.3554-0.3074 0.0000 ( 12022 PWs)   bands (ev):

   -21.2677 -14.3981  -9.3623  -7.6820  -7.5869  -6.4851  -5.1479  -4.7463
    -2.8855   0.1858   2.1979   2.8204   3.1593   4.0312   4.8685   5.4535
     5.8053   6.2074   6.7339   7.1353   7.2783   8.2798   8.3835   8.7343
     8.9845   9.4955  10.2520  10.5143  10.6436  10.7415

          k =-0.1777 0.6148 0.0000 ( 12007 PWs)   bands (ev):

   -21.2100 -14.1230  -9.5191  -8.0394  -7.7936  -6.2792  -5.0937  -4.6748
    -3.0186  -0.3083   2.2818   2.9167   3.1003   4.0464   4.6960   6.0085
     6.3932   6.9082   7.3807   7.4843   7.9185   8.2558   8.4011   8.8596
     9.0432   9.4611   9.6485   9.8746  10.2215  10.5255

          k =-0.1333 0.5380 0.0000 ( 12012 PWs)   bands (ev):

   -21.2102 -14.1238  -9.5180  -8.0381  -7.7948  -6.2797  -5.0949  -4.6755
    -3.0182  -0.3076   2.2822   2.9189   3.0976   4.0476   4.6968   6.0060
     6.3941   6.9058   7.3784   7.4825   7.9175   8.2545   8.4015   8.8645
     9.0432   9.4641   9.6512   9.8759  10.2270  10.5246

          k =-0.0889 0.4611 0.0000 ( 12026 PWs)   bands (ev):

   -21.2683 -14.4000  -9.3593  -7.6853  -7.5841  -6.4859  -5.1497  -4.7488
    -2.8855   0.1883   2.1986   2.8216   3.1566   4.0337   4.8709   5.4540
     5.8011   6.2041   6.7302   7.1341   7.2778   8.2818   8.3823   8.7441
     8.9960   9.4986  10.2510  10.5210  10.6448  10.7446

          k =-0.0444 0.3843 0.0000 ( 12044 PWs)   bands (ev):

   -21.3685 -14.8153  -9.0763  -7.4755  -7.1899  -6.5047  -5.4486  -4.3514
    -2.9158   1.0390   1.7589   2.9720   3.0755   4.2743   4.6617   5.0718
     5.2248   5.5606   5.9713   6.5624   7.2580   7.4261   7.8401   7.9871
     9.1941   9.5313   9.9585  10.7243  11.2251  11.3929

          k = 0.0000 0.3074 0.0000 ( 12097 PWs)   bands (ev):

   -21.4854 -15.2342  -8.7384  -7.4228  -7.2254  -6.1139  -5.3707  -3.7218
    -3.0906   0.9205   2.1766   2.7866   3.4473   4.0071   4.4229   4.6970
     4.8560   5.2181   5.9376   6.1641   6.2852   6.9251   7.4838   8.3382
     8.9940   9.2031   9.6641  10.4201  11.0689  11.4506

          k = 0.2666 0.0000 0.0000 ( 12113 PWs)   bands (ev):

   -21.5465 -15.4332  -8.6148  -7.5576  -7.0099  -6.1635  -5.1374  -3.2288
    -3.0099   0.4972   2.1892   2.6637   3.6918   3.8564   4.0882   4.3392
     4.8548   5.1515   5.4770   6.0868   6.6010   7.7056   7.8356   8.1321
     8.7458   8.9327   8.9878  10.1718  10.9739  11.0001

          k = 0.3110-0.0769 0.0000 ( 12105 PWs)   bands (ev):

   -21.4663 -15.1690  -8.8450  -7.4002  -7.1592  -6.1928  -5.5499  -3.4900
    -3.0694   0.8313   1.8576   2.8389   3.6746   3.9310   4.1969   4.5311
     4.9027   5.2645   5.5525   6.2294   7.0225   7.6185   7.7010   8.3069
     8.9874   9.1940   9.8078  10.2720  10.8410  11.3117

          k = 0.3554-0.1537 0.0000 ( 12042 PWs)   bands (ev):

   -21.3673 -14.8122  -9.0798  -7.4721  -7.1881  -6.5034  -5.4466  -4.3556
    -2.9141   1.0378   1.7570   2.9736   3.0751   4.2694   4.6584   5.0750
     5.2243   5.5518   5.9751   6.5639   7.2483   7.4259   7.8387   7.9889
     9.1984   9.5341   9.9562  10.7277  11.2217  11.3894

          k = 0.3998-0.2306 0.0000 ( 12026 PWs)   bands (ev):

   -21.2720 -14.4236  -9.2408  -7.8347  -7.3476  -6.4709  -5.2256  -5.1045
    -2.8253   0.5757   1.8969   2.9429   3.0304   4.2237   5.1892   5.6719
     6.0049   6.1660   6.6185   7.0499   7.1984   7.3580   8.2785   8.5911
     9.0223   9.7664  10.0049  10.5970  10.9021  11.3648

          k =-0.1333 0.6917 0.0000 ( 11972 PWs)   bands (ev):

   -21.2030 -14.1039  -9.3104  -8.1384  -7.6653  -6.2571  -5.7939  -4.7343
    -2.8435  -0.0754   2.0672   2.8875   3.2916   4.0180   5.7089   6.0085
     6.2979   6.8144   7.2340   7.7830   7.9797   8.0829   8.5461   8.7578
     9.3165   9.6685   9.8541  10.0743  10.2144  10.7763

          k =-0.0889 0.6148 0.0000 ( 12036 PWs)   bands (ev):

   -21.1781 -13.9771  -9.3217  -8.2617  -7.8020  -6.1822  -5.9792  -4.5359
    -2.8945  -0.3506   2.2256   2.7501   3.3237   4.1071   5.6092   6.1030
     6.9194   7.2225   7.3495   8.0642   8.4980   8.5813   8.5877   9.0074
     9.2855   9.3138   9.4957   9.8229  10.0296  10.6386

          k =-0.0444 0.5380 0.0000 ( 11976 PWs)   bands (ev):

   -21.2036 -14.1060  -9.3071  -8.1417  -7.6627  -6.2582  -5.7950  -4.7365
    -2.8435  -0.0729   2.0671   2.8873   3.2915   4.0206   5.7080   6.0087
     6.3007   6.8106   7.2284   7.7786   7.9791   8.0847   8.5525   8.7667
     9.3168   9.6676   9.8538  10.0814  10.2170  10.7800

          k = 0.0000 0.4611 0.0000 ( 12034 PWs)   bands (ev):

   -21.2730 -14.4267  -9.2365  -7.8389  -7.3462  -6.4722  -5.2249  -5.1075
    -2.8265   0.5790   1.8983   2.9408   3.0306   4.2283   5.1884   5.6666
     6.0084   6.1712   6.6160   7.0500   7.1961   7.3744   8.2743   8.5876
     9.0201   9.7661  10.0052  10.5963  10.9017  11.3646

          k = 0.3554 0.0000 0.0000 ( 12091 PWs)   bands (ev):

   -21.4157 -14.9885  -9.0682  -7.3143  -7.1343  -6.5226  -5.5959  -3.3405
    -3.0147   0.5564   1.6485   2.8782   3.3818   3.7087   4.4375   4.7947
     5.1853   5.2964   5.6376   6.4356   7.3078   7.7663   8.1884   8.8236
     9.0512   9.4358   9.9791  10.1561  10.6712  11.2448

          k = 0.3998-0.0769 0.0000 ( 12056 PWs)   bands (ev):

   -21.3439 -14.7153  -9.2695  -7.3746  -7.2992  -6.6815  -5.4139  -3.8401
    -2.9387   0.3210   1.8964   2.8611   3.4655   3.5663   4.6069   5.0749
     5.2610   5.5969   6.1830   6.7519   7.6566   7.9297   8.0416   8.7150
     9.0285   9.6201  10.0649  10.5017  10.5886  11.1784

          k = 0.4443-0.1537 0.0000 ( 12030 PWs)   bands (ev):

   -21.2669 -14.3959  -9.3622  -7.6833  -7.5821  -6.4835  -5.1474  -4.7553
    -2.8826   0.1865   2.1953   2.8199   3.1568   4.0254   4.8563   5.4556
     5.8063   6.2097   6.7321   7.1349   7.2818   8.2867   8.3874   8.7422
     8.9928   9.5027  10.2555  10.5279  10.6442  10.7406

          k =-0.0889 0.7685 0.0000 ( 11974 PWs)   bands (ev):

   -21.2026 -14.1026  -9.3106  -8.1388  -7.6624  -6.2562  -5.7991  -4.7332
    -2.8417  -0.0762   2.0646   2.8893   3.2894   4.0169   5.7060   6.0052
     6.2874   6.8147   7.2355   7.7847   7.9852   8.0873   8.5539   8.7665
     9.3179   9.6687   9.8541  10.0858  10.2207  10.7819

          k =-0.0444 0.6917 0.0000 ( 11998 PWs)   bands (ev):

   -21.1662 -13.9236  -9.1428  -8.5411  -7.5419  -6.5190  -6.1224  -4.4716
    -2.7984  -0.4195   2.0209   3.0126   3.4280   3.8759   5.6887   6.7414
     7.1326   7.3383   7.8828   8.1474   8.4201   8.4694   8.8358   9.1199
     9.2229   9.6059   9.7865   9.8632   9.9331  10.4692

          k = 0.0000 0.6148 0.0000 ( 11984 PWs)   bands (ev):

   -21.1666 -13.9249  -9.1402  -8.5435  -7.5418  -6.5177  -6.1231  -4.4732
    -2.7990  -0.4176   2.0212   3.0093   3.4335   3.8750   5.6897   6.7411
     7.1318   7.3429   7.8797   8.1520   8.4167   8.4643   8.8369   9.1190
     9.2164   9.6063   9.7867   9.8681   9.9366  10.4690

          k = 0.4443 0.0000 0.0000 ( 12049 PWs)   bands (ev):

   -21.3029 -14.5407  -9.4728  -7.7329  -7.2337  -6.6257  -5.2681  -3.5859
    -2.9852  -0.1850   1.8277   2.7131   3.0035   3.7983   4.9287   5.1713
     5.5905   5.9453   6.5964   6.9837   7.7709   8.1111   8.2455   8.4324
     8.9304   9.4240  10.0575  10.2192  10.7353  10.8118

          k = 0.4887-0.0769 0.0000 ( 12031 PWs)   bands (ev):

   -21.2541 -14.3251  -9.5718  -8.0038  -7.4072  -6.4478  -5.0459  -4.0566
    -3.0298  -0.3334   2.0322   2.6833   3.2386   3.7942   4.5156   5.6263
     6.0866   6.5176   7.1047   7.2985   7.4985   7.9938   8.4524   8.7933
     8.9922   9.2691   9.5610   9.9845  10.2559  10.7103

          k =-0.0444 0.8454 0.0000 ( 11996 PWs)   bands (ev):

   -21.2088 -14.1194  -9.5196  -8.0352  -7.7945  -6.2772  -5.1020  -4.6742
    -3.0144  -0.3106   2.2824   2.9117   3.0940   4.0422   4.6831   6.0070
     6.3973   6.9105   7.3868   7.4876   7.9239   8.2592   8.4075   8.8707
     9.0478   9.4670   9.6565   9.8787  10.2265  10.5279

          k = 0.0000 0.7685 0.0000 ( 12026 PWs)   bands (ev):

   -21.1773 -13.9744  -9.3233  -8.2609  -7.7993  -6.1814  -5.9851  -4.5332
    -2.8918  -0.3537   2.2216   2.7552   3.3168   4.1068   5.6064   6.0829
     6.9245   7.2257   7.3539   8.0685   8.5059   8.5879   8.5920   9.0070
     9.2917   9.3203   9.4981   9.8252  10.0358  10.6406

          k = 0.5331 0.0000 0.0000 ( 12015 PWs)   bands (ev):

   -21.2373 -14.2375  -9.6988  -8.2753  -7.2884  -6.3790  -4.9173  -3.7152
    -3.1722  -0.6020   1.7821   2.4781   2.9387   4.1428   4.7871   5.8054
     6.3855   6.8272   7.0820   7.6511   7.7735   8.1479   8.2252   8.4070
     8.5934   9.0372   9.2560   9.4170   9.8522  10.5060

          k = 0.0000 0.9222 0.0000 ( 12012 PWs)   bands (ev):

   -21.2211 -14.1634  -9.6802  -8.2871  -7.4421  -6.3143  -4.8327  -4.1222
    -3.1767  -0.5430   1.9678   2.6463   3.1700   4.0339   4.3970   6.1328
     6.4476   7.0661   7.3687   7.5922   7.8891   7.9782   8.3987   8.5190
     8.6328   8.7893   9.2191   9.7599  10.1775  10.2787

     highest occupied, lowest unoccupied level (ev):    -2.2332   -0.7922

!    total energy              =    -186.58722811 Ry

     total all-electron energy =     -1919.820799 Ry
     estimated scf accuracy    <          6.7E-09 Ry

     The total energy is the sum of the following terms:
     one-electron contribution =    -529.14486818 Ry
     hartree contribution      =     269.46756025 Ry
     xc contribution           =     -17.91865866 Ry
     ewald contribution        =     215.38808585 Ry
     one-center paw contrib.   =    -124.37934737 Ry

     convergence has been achieved in  10 iterations

     Writing all to output data dir ./work/Al2SO.save/
 
     init_run     :      4.38s CPU      4.67s WALL (       1 calls)
     electrons    :     32.85s CPU     38.67s WALL (       1 calls)

     Called by init_run:
     wfcinit      :      0.74s CPU      0.94s WALL (       1 calls)
     potinit      :      3.43s CPU      3.46s WALL (       1 calls)
     hinit0       :      0.13s CPU      0.16s WALL (       1 calls)

     Called by electrons:
     c_bands      :     27.12s CPU     32.01s WALL (      10 calls)
     sum_band     :      4.08s CPU      4.88s WALL (      10 calls)
     v_of_rho     :      3.90s CPU      4.01s WALL (      11 calls)
     newd         :      0.69s CPU      0.73s WALL (      11 calls)
     PAW_pot      :      0.43s CPU      0.48s WALL (      11 calls)
     mix_rho      :      0.02s CPU      0.02s WALL (      10 calls)
     vdW_kernel   :      3.29s CPU      3.29s WALL (       1 calls)

     Called by c_bands:
     init_us_2    :      0.30s CPU      0.34s WALL (    1029 calls)
     init_us_2:cp :      0.30s CPU      0.33s WALL (    1029 calls)
     cegterg      :     25.55s CPU     30.40s WALL (     490 calls)

     Called by *egterg:
     cdiaghg      :      1.65s CPU      1.79s WALL (    2732 calls)
     h_psi        :     18.37s CPU     22.81s WALL (    2781 calls)
     s_psi        :      0.89s CPU      1.01s WALL (    2781 calls)
     g_psi        :      0.07s CPU      0.08s WALL (    2242 calls)

     Called by h_psi:
     h_psi:calbec :      1.09s CPU      1.34s WALL (    2781 calls)
     vloc_psi     :     15.78s CPU     19.75s WALL (    2781 calls)
     add_vuspsi   :      1.16s CPU      1.38s WALL (    2781 calls)

     General routines
     calbec       :      1.33s CPU      1.63s WALL (    3271 calls)
     fft          :      0.23s CPU      0.30s WALL (     671 calls)
     ffts         :      0.01s CPU      0.01s WALL (      10 calls)
     fftw         :     17.29s CPU     21.65s WALL (   96776 calls)
 
     Parallel routines
 
     PWSCF        :     37.42s CPU     43.77s WALL

 
   This run was terminated on:   3:35: 8  13Jun2023            

=------------------------------------------------------------------------------=
   JOB DONE.
=------------------------------------------------------------------------------=
