
     Program BANDS v.7.0 starts on 13Jun2023 at  3:36:44 

     This program is part of the open-source Quantum ESPRESSO suite
     for quantum simulation of materials; please cite
         "P. Giannozzi et al., J. Phys.:Condens. Matter 21 395502 (2009);
         "P. Giannozzi et al., J. Phys.:Condens. Matter 29 465901 (2017);
         "P. Giannozzi et al., J. Chem. Phys. 152 154105 (2020);
          URL http://www.quantum-espresso.org", 
     in publications or presentations arising from this work. More details at
     http://www.quantum-espresso.org/quote

     Parallel version (MPI), running on    10 processors

     MPI processes distributed on     1 nodes
     R & G space division:  proc/nbgrp/npool/nimage =      10
     14143 MiB available memory on the printing compute node when the environment starts
 

     Reading xml data from directory:

     ./work/Al2SO.save/
     Message from routine volume:
     axis vectors are left-handed
     file Al.pbe-n-kjpaw_psl.1.0.0.UPF: wavefunction(s)  3S 3P renormalized
     file O.pbe-n-kjpaw_psl.1.0.0.UPF: wavefunction(s)  2S 2P renormalized
     file S.pbe-n-kjpaw_psl.1.0.0.UPF: wavefunction(s)  3S 3P renormalized

     IMPORTANT: XC functional enforced from input :
     Exchange-correlation= VDW-DF2-B86R
                           (   1   4  26   0   2   0   0)
     Any further DFT definition will be discarded
     Please, verify this is what you really want

 
     Parallelization info
     --------------------
     sticks:   dense  smooth     PW     G-vecs:    dense   smooth      PW
     Min          62      62     18                 9614     9614    1544
     Max          63      63     19                 9626     9626    1549
     Sum         621     621    187                96189    96189   15457
 
     Using Slab Decomposition
 

     Check: negative core charge=   -0.000002

     negative rho (up, down):  1.179E-03 0.000E+00


     %%%%%%%%%%%%%%%%%%%%%%%%%%%%%%%%%%%%%%%%%%%%%%%%%%%%%%%%%%%%%%%%%%%%%%%%
     %                                                                      %
     % You are using vdW-DF, which was implemented by the Thonhauser group. %
     % Please cite the following two papers that made this development      %
     % possible and the two reviews that describe the various versions:     %
     %                                                                      %
     %   T. Thonhauser et al., PRL 115, 136402 (2015).                      %
     %   T. Thonhauser et al., PRB 76, 125112 (2007).                       %
     %   K. Berland et al., Rep. Prog. Phys. 78, 066501 (2015).             %
     %   D.C. Langreth et al., J. Phys.: Condens. Matter 21, 084203 (2009). %
     %                                                                      %
     %                                                                      %
     % If you are calculating the stress with vdW-DF, please also cite:     %
     %                                                                      %
     %   R. Sabatini et al., J. Phys.: Condens. Matter 24, 424209 (2012).   %
     %                                                                      %
     %%%%%%%%%%%%%%%%%%%%%%%%%%%%%%%%%%%%%%%%%%%%%%%%%%%%%%%%%%%%%%%%%%%%%%%%


     Reading collected, re-writing distributed wavefunctions
     high-symmetry point:  0.0000 0.0000 0.0000   x coordinate   0.0000
     high-symmetry point:  0.5648 0.3106 0.0000   x coordinate   0.6446
     high-symmetry point:  0.5775 0.0000 0.0000   x coordinate   0.9555
     high-symmetry point:  0.0000 0.0000 0.0000   x coordinate   1.5330

     Plottable bands (eV) written to file Al2SO.bands.gnu
     Bands written to file Al2SO.bands

 **************************************************************************

                    xk=(   0.00000,   0.00000,   0.00000  )

     point group C_s (m)    
     there are  2 classes
     the character table:

       E     s    
A'     1.00  1.00
A''    1.00 -1.00

     the symmetry operations in each class and the name of the first element:

     E        1
                                                                 
     s        2
                                                                 

     Band symmetry, C_s (m)     point group:

     e(  1 -  1) =    -21.77650  eV     1   --> A'             
     e(  2 -  2) =    -16.09534  eV     1   --> A'             
     e(  3 -  3) =     -8.63996  eV     1   --> A'             
     e(  4 -  4) =     -6.76843  eV     1   --> A'             
     e(  5 -  5) =     -6.76539  eV     1   --> A''            
     e(  6 -  6) =     -6.58153  eV     1   --> A'             
     e(  7 -  7) =     -3.98537  eV     1   --> A'             
     e(  8 -  8) =     -2.24524  eV     1   --> A''            
     e(  9 -  9) =     -2.23362  eV     1   --> A'             
     e( 10 - 10) =     -0.79236  eV     1   --> A'             
     e( 11 - 11) =      1.82561  eV     1   --> A'             
     e( 12 - 12) =      2.74332  eV     1   --> A'             
     e( 13 - 13) =      2.99440  eV     1   --> A'             
     e( 14 - 14) =      3.77206  eV     1   --> A'             
     e( 15 - 15) =      3.94979  eV     1   --> A'             
     e( 16 - 16) =      4.33552  eV     1   --> A'             
     e( 17 - 17) =      5.19223  eV     1   --> A'             
     e( 18 - 18) =      5.23911  eV     1   --> A''            
     e( 19 - 19) =      5.25804  eV     1   --> A'             
     e( 20 - 20) =      5.59948  eV     1   --> A'             
     e( 21 - 21) =      6.65734  eV     1   --> A''            
     e( 22 - 22) =      6.68025  eV     1   --> A'             
     e( 23 - 23) =      7.12770  eV     1   --> A'             
     e( 24 - 24) =      7.89532  eV     1   --> A'             
     e( 25 - 25) =      8.64241  eV     1   --> A''            
     e( 26 - 26) =      8.66168  eV     1   --> A'             
     e( 27 - 27) =      9.18883  eV     1   --> A'             
     e( 28 - 28) =      9.92588  eV     1   --> A'             
     e( 29 - 29) =     10.72433  eV     1   --> A''            
     e( 30 - 30) =     10.74197  eV     1   --> A'             

 **************************************************************************

 **************************************************************************

                    xk=(   0.01883,   0.01035,   0.00000  )

     point group C_1 (1)    
     there are  1 classes
     the character table:

       E    
A      1.00

     the symmetry operations in each class and the name of the first element:

     E        1
                                                                 

     Band symmetry, C_1 (1)     point group:

     e(  1 -  1) =    -21.77478  eV     1   --> A              
     e(  2 -  2) =    -16.09078  eV     1   --> A              
     e(  3 -  3) =     -8.63633  eV     1   --> A              
     e(  4 -  4) =     -6.78198  eV     1   --> A              
     e(  5 -  5) =     -6.76796  eV     1   --> A              
     e(  6 -  6) =     -6.57815  eV     1   --> A              
     e(  7 -  7) =     -3.97660  eV     1   --> A              
     e(  8 -  8) =     -2.26935  eV     1   --> A              
     e(  9 -  9) =     -2.24835  eV     1   --> A              
     e( 10 - 10) =     -0.78035  eV     1   --> A              
     e( 11 - 11) =      1.83139  eV     1   --> A              
     e( 12 - 12) =      2.74911  eV     1   --> A              
     e( 13 - 13) =      3.00081  eV     1   --> A              
     e( 14 - 14) =      3.77837  eV     1   --> A              
     e( 15 - 15) =      3.95881  eV     1   --> A              
     e( 16 - 16) =      4.35577  eV     1   --> A              
     e( 17 - 17) =      5.16952  eV     1   --> A              
     e( 18 - 18) =      5.24675  eV     1   --> A              
     e( 19 - 19) =      5.26065  eV     1   --> A              
     e( 20 - 20) =      5.60704  eV     1   --> A              
     e( 21 - 21) =      6.63379  eV     1   --> A              
     e( 22 - 22) =      6.67108  eV     1   --> A              
     e( 23 - 23) =      7.12921  eV     1   --> A              
     e( 24 - 24) =      7.90978  eV     1   --> A              
     e( 25 - 25) =      8.59385  eV     1   --> A              
     e( 26 - 26) =      8.63703  eV     1   --> A              
     e( 27 - 27) =      9.23152  eV     1   --> A              
     e( 28 - 28) =      9.94166  eV     1   --> A              
     e( 29 - 29) =     10.71010  eV     1   --> A              
     e( 30 - 30) =     10.74385  eV     1   --> A              

 **************************************************************************

 **************************************************************************

                    xk=(   0.03765,   0.02071,   0.00000  )

     Band symmetry, C_1 (1)     point group:

     e(  1 -  1) =    -21.76965  eV     1   --> A              
     e(  2 -  2) =    -16.07711  eV     1   --> A              
     e(  3 -  3) =     -8.62558  eV     1   --> A              
     e(  4 -  4) =     -6.82328  eV     1   --> A              
     e(  5 -  5) =     -6.77399  eV     1   --> A              
     e(  6 -  6) =     -6.56811  eV     1   --> A              
     e(  7 -  7) =     -3.95113  eV     1   --> A              
     e(  8 -  8) =     -2.36098  eV     1   --> A              
     e(  9 -  9) =     -2.27048  eV     1   --> A              
     e( 10 - 10) =     -0.74496  eV     1   --> A              
     e( 11 - 11) =      1.84867  eV     1   --> A              
     e( 12 - 12) =      2.76625  eV     1   --> A              
     e( 13 - 13) =      3.02001  eV     1   --> A              
     e( 14 - 14) =      3.79718  eV     1   --> A              
     e( 15 - 15) =      3.98245  eV     1   --> A              
     e( 16 - 16) =      4.41535  eV     1   --> A              
     e( 17 - 17) =      5.09640  eV     1   --> A              
     e( 18 - 18) =      5.25554  eV     1   --> A              
     e( 19 - 19) =      5.29156  eV     1   --> A              
     e( 20 - 20) =      5.62840  eV     1   --> A              
     e( 21 - 21) =      6.53035  eV     1   --> A              
     e( 22 - 22) =      6.68649  eV     1   --> A              
     e( 23 - 23) =      7.13264  eV     1   --> A              
     e( 24 - 24) =      7.94758  eV     1   --> A              
     e( 25 - 25) =      8.44744  eV     1   --> A              
     e( 26 - 26) =      8.60114  eV     1   --> A              
     e( 27 - 27) =      9.32842  eV     1   --> A              
     e( 28 - 28) =      9.98308  eV     1   --> A              
     e( 29 - 29) =     10.64583  eV     1   --> A              
     e( 30 - 30) =     10.77761  eV     1   --> A              

 **************************************************************************

 **************************************************************************

                    xk=(   0.05648,   0.03106,   0.00000  )

     Band symmetry, C_1 (1)     point group:

     e(  1 -  1) =    -21.76115  eV     1   --> A              
     e(  2 -  2) =    -16.05440  eV     1   --> A              
     e(  3 -  3) =     -8.60812  eV     1   --> A              
     e(  4 -  4) =     -6.88869  eV     1   --> A              
     e(  5 -  5) =     -6.78399  eV     1   --> A              
     e(  6 -  6) =     -6.55156  eV     1   --> A              
     e(  7 -  7) =     -3.91133  eV     1   --> A              
     e(  8 -  8) =     -2.50674  eV     1   --> A              
     e(  9 -  9) =     -2.30611  eV     1   --> A              
     e( 10 - 10) =     -0.68778  eV     1   --> A              
     e( 11 - 11) =      1.87719  eV     1   --> A              
     e( 12 - 12) =      2.79419  eV     1   --> A              
     e( 13 - 13) =      3.05195  eV     1   --> A              
     e( 14 - 14) =      3.82811  eV     1   --> A              
     e( 15 - 15) =      4.01376  eV     1   --> A              
     e( 16 - 16) =      4.50746  eV     1   --> A              
     e( 17 - 17) =      4.98022  eV     1   --> A              
     e( 18 - 18) =      5.26668  eV     1   --> A              
     e( 19 - 19) =      5.35111  eV     1   --> A              
     e( 20 - 20) =      5.66163  eV     1   --> A              
     e( 21 - 21) =      6.37986  eV     1   --> A              
     e( 22 - 22) =      6.71638  eV     1   --> A              
     e( 23 - 23) =      7.13499  eV     1   --> A              
     e( 24 - 24) =      7.99802  eV     1   --> A              
     e( 25 - 25) =      8.26767  eV     1   --> A              
     e( 26 - 26) =      8.54247  eV     1   --> A              
     e( 27 - 27) =      9.43728  eV     1   --> A              
     e( 28 - 28) =     10.04133  eV     1   --> A              
     e( 29 - 29) =     10.56878  eV     1   --> A              
     e( 30 - 30) =     10.81834  eV     1   --> A              

 **************************************************************************

 **************************************************************************

                    xk=(   0.07531,   0.04142,   0.00000  )

     Band symmetry, C_1 (1)     point group:

     e(  1 -  1) =    -21.74939  eV     1   --> A              
     e(  2 -  2) =    -16.02273  eV     1   --> A              
     e(  3 -  3) =     -8.58471  eV     1   --> A              
     e(  4 -  4) =     -6.97366  eV     1   --> A              
     e(  5 -  5) =     -6.79810  eV     1   --> A              
     e(  6 -  6) =     -6.52866  eV     1   --> A              
     e(  7 -  7) =     -3.86070  eV     1   --> A              
     e(  8 -  8) =     -2.69573  eV     1   --> A              
     e(  9 -  9) =     -2.35621  eV     1   --> A              
     e( 10 - 10) =     -0.61068  eV     1   --> A              
     e( 11 - 11) =      1.91662  eV     1   --> A              
     e( 12 - 12) =      2.83215  eV     1   --> A              
     e( 13 - 13) =      3.09655  eV     1   --> A              
     e( 14 - 14) =      3.87055  eV     1   --> A              
     e( 15 - 15) =      4.04702  eV     1   --> A              
     e( 16 - 16) =      4.61049  eV     1   --> A              
     e( 17 - 17) =      4.84237  eV     1   --> A              
     e( 18 - 18) =      5.28007  eV     1   --> A              
     e( 19 - 19) =      5.43160  eV     1   --> A              
     e( 20 - 20) =      5.70562  eV     1   --> A              
     e( 21 - 21) =      6.20625  eV     1   --> A              
     e( 22 - 22) =      6.76241  eV     1   --> A              
     e( 23 - 23) =      7.13221  eV     1   --> A              
     e( 24 - 24) =      8.04621  eV     1   --> A              
     e( 25 - 25) =      8.09807  eV     1   --> A              
     e( 26 - 26) =      8.46369  eV     1   --> A              
     e( 27 - 27) =      9.52634  eV     1   --> A              
     e( 28 - 28) =     10.11488  eV     1   --> A              
     e( 29 - 29) =     10.50601  eV     1   --> A              
     e( 30 - 30) =     10.84875  eV     1   --> A              

 **************************************************************************

 **************************************************************************

                    xk=(   0.09414,   0.05177,   0.00000  )

     Band symmetry, C_1 (1)     point group:

     e(  1 -  1) =    -21.73448  eV     1   --> A              
     e(  2 -  2) =    -15.98224  eV     1   --> A              
     e(  3 -  3) =     -8.55659  eV     1   --> A              
     e(  4 -  4) =     -7.07275  eV     1   --> A              
     e(  5 -  5) =     -6.81648  eV     1   --> A              
     e(  6 -  6) =     -6.49965  eV     1   --> A              
     e(  7 -  7) =     -3.80399  eV     1   --> A              
     e(  8 -  8) =     -2.91632  eV     1   --> A              
     e(  9 -  9) =     -2.42113  eV     1   --> A              
     e( 10 - 10) =     -0.51547  eV     1   --> A              
     e( 11 - 11) =      1.96648  eV     1   --> A              
     e( 12 - 12) =      2.87910  eV     1   --> A              
     e( 13 - 13) =      3.15366  eV     1   --> A              
     e( 14 - 14) =      3.92323  eV     1   --> A              
     e( 15 - 15) =      4.07708  eV     1   --> A              
     e( 16 - 16) =      4.60598  eV     1   --> A              
     e( 17 - 17) =      4.80001  eV     1   --> A              
     e( 18 - 18) =      5.29079  eV     1   --> A              
     e( 19 - 19) =      5.51755  eV     1   --> A              
     e( 20 - 20) =      5.75737  eV     1   --> A              
     e( 21 - 21) =      6.03230  eV     1   --> A              
     e( 22 - 22) =      6.83254  eV     1   --> A              
     e( 23 - 23) =      7.12223  eV     1   --> A              
     e( 24 - 24) =      7.93343  eV     1   --> A              
     e( 25 - 25) =      8.11265  eV     1   --> A              
     e( 26 - 26) =      8.37944  eV     1   --> A              
     e( 27 - 27) =      9.57417  eV     1   --> A              
     e( 28 - 28) =     10.20428  eV     1   --> A              
     e( 29 - 29) =     10.47179  eV     1   --> A              
     e( 30 - 30) =     10.85850  eV     1   --> A              

 **************************************************************************

 **************************************************************************

                    xk=(   0.11296,   0.06213,   0.00000  )

     Band symmetry, C_1 (1)     point group:

     e(  1 -  1) =    -21.71659  eV     1   --> A              
     e(  2 -  2) =    -15.93310  eV     1   --> A              
     e(  3 -  3) =     -8.52574  eV     1   --> A              
     e(  4 -  4) =     -7.17979  eV     1   --> A              
     e(  5 -  5) =     -6.83925  eV     1   --> A              
     e(  6 -  6) =     -6.46479  eV     1   --> A              
     e(  7 -  7) =     -3.74934  eV     1   --> A              
     e(  8 -  8) =     -3.15394  eV     1   --> A              
     e(  9 -  9) =     -2.50112  eV     1   --> A              
     e( 10 - 10) =     -0.40390  eV     1   --> A              
     e( 11 - 11) =      2.02618  eV     1   --> A              
     e( 12 - 12) =      2.93358  eV     1   --> A              
     e( 13 - 13) =      3.22304  eV     1   --> A              
     e( 14 - 14) =      3.98204  eV     1   --> A              
     e( 15 - 15) =      4.09149  eV     1   --> A              
     e( 16 - 16) =      4.46119  eV     1   --> A              
     e( 17 - 17) =      4.89927  eV     1   --> A              
     e( 18 - 18) =      5.28975  eV     1   --> A              
     e( 19 - 19) =      5.57540  eV     1   --> A              
     e( 20 - 20) =      5.78138  eV     1   --> A              
     e( 21 - 21) =      5.91636  eV     1   --> A              
     e( 22 - 22) =      6.94093  eV     1   --> A              
     e( 23 - 23) =      7.11070  eV     1   --> A              
     e( 24 - 24) =      7.80886  eV     1   --> A              
     e( 25 - 25) =      8.14868  eV     1   --> A              
     e( 26 - 26) =      8.32940  eV     1   --> A              
     e( 27 - 27) =      9.57987  eV     1   --> A              
     e( 28 - 28) =     10.29957  eV     1   --> A              
     e( 29 - 29) =     10.46463  eV     1   --> A              
     e( 30 - 30) =     10.84697  eV     1   --> A              

 **************************************************************************

 **************************************************************************

                    xk=(   0.13179,   0.07248,   0.00000  )

     Band symmetry, C_1 (1)     point group:

     e(  1 -  1) =    -21.69591  eV     1   --> A              
     e(  2 -  2) =    -15.87554  eV     1   --> A              
     e(  3 -  3) =     -8.49522  eV     1   --> A              
     e(  4 -  4) =     -7.28791  eV     1   --> A              
     e(  5 -  5) =     -6.86660  eV     1   --> A              
     e(  6 -  6) =     -6.42451  eV     1   --> A              
     e(  7 -  7) =     -3.72449  eV     1   --> A              
     e(  8 -  8) =     -3.37519  eV     1   --> A              
     e(  9 -  9) =     -2.59634  eV     1   --> A              
     e( 10 - 10) =     -0.27772  eV     1   --> A              
     e( 11 - 11) =      2.09496  eV     1   --> A              
     e( 12 - 12) =      2.99291  eV     1   --> A              
     e( 13 - 13) =      3.30426  eV     1   --> A              
     e( 14 - 14) =      4.00085  eV     1   --> A              
     e( 15 - 15) =      4.08536  eV     1   --> A              
     e( 16 - 16) =      4.36162  eV     1   --> A              
     e( 17 - 17) =      5.00839  eV     1   --> A              
     e( 18 - 18) =      5.26182  eV     1   --> A              
     e( 19 - 19) =      5.54642  eV     1   --> A              
     e( 20 - 20) =      5.72936  eV     1   --> A              
     e( 21 - 21) =      5.95684  eV     1   --> A              
     e( 22 - 22) =      7.07450  eV     1   --> A              
     e( 23 - 23) =      7.13090  eV     1   --> A              
     e( 24 - 24) =      7.69352  eV     1   --> A              
     e( 25 - 25) =      8.16562  eV     1   --> A              
     e( 26 - 26) =      8.35459  eV     1   --> A              
     e( 27 - 27) =      9.55647  eV     1   --> A              
     e( 28 - 28) =     10.36848  eV     1   --> A              
     e( 29 - 29) =     10.48423  eV     1   --> A              
     e( 30 - 30) =     10.82615  eV     1   --> A              

 **************************************************************************

 **************************************************************************

                    xk=(   0.15062,   0.08284,   0.00000  )

     Band symmetry, C_1 (1)     point group:

     e(  1 -  1) =    -21.67266  eV     1   --> A              
     e(  2 -  2) =    -15.80982  eV     1   --> A              
     e(  3 -  3) =     -8.46973  eV     1   --> A              
     e(  4 -  4) =     -7.38913  eV     1   --> A              
     e(  5 -  5) =     -6.89872  eV     1   --> A              
     e(  6 -  6) =     -6.37933  eV     1   --> A              
     e(  7 -  7) =     -3.83337  eV     1   --> A              
     e(  8 -  8) =     -3.47119  eV     1   --> A              
     e(  9 -  9) =     -2.70675  eV     1   --> A              
     e( 10 - 10) =     -0.13872  eV     1   --> A              
     e( 11 - 11) =      2.17177  eV     1   --> A              
     e( 12 - 12) =      3.05129  eV     1   --> A              
     e( 13 - 13) =      3.39651  eV     1   --> A              
     e( 14 - 14) =      3.86562  eV     1   --> A              
     e( 15 - 15) =      4.14130  eV     1   --> A              
     e( 16 - 16) =      4.36092  eV     1   --> A              
     e( 17 - 17) =      5.10820  eV     1   --> A              
     e( 18 - 18) =      5.19399  eV     1   --> A              
     e( 19 - 19) =      5.43185  eV     1   --> A              
     e( 20 - 20) =      5.72531  eV     1   --> A              
     e( 21 - 21) =      6.04655  eV     1   --> A              
     e( 22 - 22) =      7.09679  eV     1   --> A              
     e( 23 - 23) =      7.27460  eV     1   --> A              
     e( 24 - 24) =      7.61491  eV     1   --> A              
     e( 25 - 25) =      8.22080  eV     1   --> A              
     e( 26 - 26) =      8.42725  eV     1   --> A              
     e( 27 - 27) =      9.51561  eV     1   --> A              
     e( 28 - 28) =     10.35277  eV     1   --> A              
     e( 29 - 29) =     10.55424  eV     1   --> A              
     e( 30 - 30) =     10.81905  eV     1   --> A              

 **************************************************************************

 **************************************************************************

                    xk=(   0.16945,   0.09319,   0.00000  )

     Band symmetry, C_1 (1)     point group:

     e(  1 -  1) =    -21.64712  eV     1   --> A              
     e(  2 -  2) =    -15.73627  eV     1   --> A              
     e(  3 -  3) =     -8.45592  eV     1   --> A              
     e(  4 -  4) =     -7.47403  eV     1   --> A              
     e(  5 -  5) =     -6.93577  eV     1   --> A              
     e(  6 -  6) =     -6.33005  eV     1   --> A              
     e(  7 -  7) =     -4.07310  eV     1   --> A              
     e(  8 -  8) =     -3.44037  eV     1   --> A              
     e(  9 -  9) =     -2.83203  eV     1   --> A              
     e( 10 - 10) =      0.01129  eV     1   --> A              
     e( 11 - 11) =      2.25512  eV     1   --> A              
     e( 12 - 12) =      3.09330  eV     1   --> A              
     e( 13 - 13) =      3.49746  eV     1   --> A              
     e( 14 - 14) =      3.69207  eV     1   --> A              
     e( 15 - 15) =      4.20344  eV     1   --> A              
     e( 16 - 16) =      4.41564  eV     1   --> A              
     e( 17 - 17) =      5.07553  eV     1   --> A              
     e( 18 - 18) =      5.17997  eV     1   --> A              
     e( 19 - 19) =      5.34029  eV     1   --> A              
     e( 20 - 20) =      5.75170  eV     1   --> A              
     e( 21 - 21) =      6.15265  eV     1   --> A              
     e( 22 - 22) =      7.08110  eV     1   --> A              
     e( 23 - 23) =      7.28296  eV     1   --> A              
     e( 24 - 24) =      7.72577  eV     1   --> A              
     e( 25 - 25) =      8.35393  eV     1   --> A              
     e( 26 - 26) =      8.52228  eV     1   --> A              
     e( 27 - 27) =      9.46281  eV     1   --> A              
     e( 28 - 28) =     10.26672  eV     1   --> A              
     e( 29 - 29) =     10.64734  eV     1   --> A              
     e( 30 - 30) =     10.84159  eV     1   --> A              

 **************************************************************************

 **************************************************************************

                    xk=(   0.18827,   0.10355,   0.00000  )

     Band symmetry, C_1 (1)     point group:

     e(  1 -  1) =    -21.61956  eV     1   --> A              
     e(  2 -  2) =    -15.65528  eV     1   --> A              
     e(  3 -  3) =     -8.46165  eV     1   --> A              
     e(  4 -  4) =     -7.53255  eV     1   --> A              
     e(  5 -  5) =     -6.97795  eV     1   --> A              
     e(  6 -  6) =     -6.27780  eV     1   --> A              
     e(  7 -  7) =     -4.34282  eV     1   --> A              
     e(  8 -  8) =     -3.37956  eV     1   --> A              
     e(  9 -  9) =     -2.97145  eV     1   --> A              
     e( 10 - 10) =      0.17050  eV     1   --> A              
     e( 11 - 11) =      2.34263  eV     1   --> A              
     e( 12 - 12) =      3.07742  eV     1   --> A              
     e( 13 - 13) =      3.54831  eV     1   --> A              
     e( 14 - 14) =      3.62045  eV     1   --> A              
     e( 15 - 15) =      4.24991  eV     1   --> A              
     e( 16 - 16) =      4.49742  eV     1   --> A              
     e( 17 - 17) =      4.94809  eV     1   --> A              
     e( 18 - 18) =      5.11837  eV     1   --> A              
     e( 19 - 19) =      5.39039  eV     1   --> A              
     e( 20 - 20) =      5.79928  eV     1   --> A              
     e( 21 - 21) =      6.27228  eV     1   --> A              
     e( 22 - 22) =      6.97642  eV     1   --> A              
     e( 23 - 23) =      7.26340  eV     1   --> A              
     e( 24 - 24) =      7.92679  eV     1   --> A              
     e( 25 - 25) =      8.56966  eV     1   --> A              
     e( 26 - 26) =      8.64824  eV     1   --> A              
     e( 27 - 27) =      9.39994  eV     1   --> A              
     e( 28 - 28) =     10.14579  eV     1   --> A              
     e( 29 - 29) =     10.74120  eV     1   --> A              
     e( 30 - 30) =     10.89507  eV     1   --> A              

 **************************************************************************

 **************************************************************************

                    xk=(   0.20710,   0.11390,   0.00000  )

     Band symmetry, C_1 (1)     point group:

     e(  1 -  1) =    -21.59031  eV     1   --> A              
     e(  2 -  2) =    -15.56731  eV     1   --> A              
     e(  3 -  3) =     -8.49284  eV     1   --> A              
     e(  4 -  4) =     -7.55716  eV     1   --> A              
     e(  5 -  5) =     -7.02540  eV     1   --> A              
     e(  6 -  6) =     -6.22445  eV     1   --> A              
     e(  7 -  7) =     -4.61413  eV     1   --> A              
     e(  8 -  8) =     -3.31394  eV     1   --> A              
     e(  9 -  9) =     -3.12298  eV     1   --> A              
     e( 10 - 10) =      0.33710  eV     1   --> A              
     e( 11 - 11) =      2.42945  eV     1   --> A              
     e( 12 - 12) =      2.95899  eV     1   --> A              
     e( 13 - 13) =      3.52172  eV     1   --> A              
     e( 14 - 14) =      3.72678  eV     1   --> A              
     e( 15 - 15) =      4.27124  eV     1   --> A              
     e( 16 - 16) =      4.58372  eV     1   --> A              
     e( 17 - 17) =      4.84511  eV     1   --> A              
     e( 18 - 18) =      5.03316  eV     1   --> A              
     e( 19 - 19) =      5.49863  eV     1   --> A              
     e( 20 - 20) =      5.86408  eV     1   --> A              
     e( 21 - 21) =      6.40454  eV     1   --> A              
     e( 22 - 22) =      6.80806  eV     1   --> A              
     e( 23 - 23) =      7.29278  eV     1   --> A              
     e( 24 - 24) =      8.09925  eV     1   --> A              
     e( 25 - 25) =      8.73017  eV     1   --> A              
     e( 26 - 26) =      8.91899  eV     1   --> A              
     e( 27 - 27) =      9.33708  eV     1   --> A              
     e( 28 - 28) =     10.02181  eV     1   --> A              
     e( 29 - 29) =     10.82559  eV     1   --> A              
     e( 30 - 30) =     10.98063  eV     1   --> A              

 **************************************************************************

 **************************************************************************

                    xk=(   0.22593,   0.12425,   0.00000  )

     Band symmetry, C_1 (1)     point group:

     e(  1 -  1) =    -21.55970  eV     1   --> A              
     e(  2 -  2) =    -15.47290  eV     1   --> A              
     e(  3 -  3) =     -8.54948  eV     1   --> A              
     e(  4 -  4) =     -7.54671  eV     1   --> A              
     e(  5 -  5) =     -7.07822  eV     1   --> A              
     e(  6 -  6) =     -6.17332  eV     1   --> A              
     e(  7 -  7) =     -4.87570  eV     1   --> A              
     e(  8 -  8) =     -3.30528  eV     1   --> A              
     e(  9 -  9) =     -3.22952  eV     1   --> A              
     e( 10 - 10) =      0.50925  eV     1   --> A              
     e( 11 - 11) =      2.49726  eV     1   --> A              
     e( 12 - 12) =      2.78756  eV     1   --> A              
     e( 13 - 13) =      3.54551  eV     1   --> A              
     e( 14 - 14) =      3.82929  eV     1   --> A              
     e( 15 - 15) =      4.27075  eV     1   --> A              
     e( 16 - 16) =      4.63068  eV     1   --> A              
     e( 17 - 17) =      4.83264  eV     1   --> A              
     e( 18 - 18) =      4.98311  eV     1   --> A              
     e( 19 - 19) =      5.62010  eV     1   --> A              
     e( 20 - 20) =      5.94295  eV     1   --> A              
     e( 21 - 21) =      6.54558  eV     1   --> A              
     e( 22 - 22) =      6.63315  eV     1   --> A              
     e( 23 - 23) =      7.34032  eV     1   --> A              
     e( 24 - 24) =      8.23588  eV     1   --> A              
     e( 25 - 25) =      8.86264  eV     1   --> A              
     e( 26 - 26) =      9.11187  eV     1   --> A              
     e( 27 - 27) =      9.41571  eV     1   --> A              
     e( 28 - 28) =      9.93217  eV     1   --> A              
     e( 29 - 29) =     10.89972  eV     1   --> A              
     e( 30 - 30) =     11.09597  eV     1   --> A              

 **************************************************************************

 **************************************************************************

                    xk=(   0.24476,   0.13461,   0.00000  )

     Band symmetry, C_1 (1)     point group:

     e(  1 -  1) =    -21.52810  eV     1   --> A              
     e(  2 -  2) =    -15.37267  eV     1   --> A              
     e(  3 -  3) =     -8.62561  eV     1   --> A              
     e(  4 -  4) =     -7.50674  eV     1   --> A              
     e(  5 -  5) =     -7.13649  eV     1   --> A              
     e(  6 -  6) =     -6.13099  eV     1   --> A              
     e(  7 -  7) =     -5.11653  eV     1   --> A              
     e(  8 -  8) =     -3.47355  eV     1   --> A              
     e(  9 -  9) =     -3.17212  eV     1   --> A              
     e( 10 - 10) =      0.68493  eV     1   --> A              
     e( 11 - 11) =      2.44288  eV     1   --> A              
     e( 12 - 12) =      2.71016  eV     1   --> A              
     e( 13 - 13) =      3.55042  eV     1   --> A              
     e( 14 - 14) =      3.90810  eV     1   --> A              
     e( 15 - 15) =      4.29458  eV     1   --> A              
     e( 16 - 16) =      4.64954  eV     1   --> A              
     e( 17 - 17) =      4.85251  eV     1   --> A              
     e( 18 - 18) =      5.02892  eV     1   --> A              
     e( 19 - 19) =      5.74882  eV     1   --> A              
     e( 20 - 20) =      6.03250  eV     1   --> A              
     e( 21 - 21) =      6.45995  eV     1   --> A              
     e( 22 - 22) =      6.70842  eV     1   --> A              
     e( 23 - 23) =      7.39633  eV     1   --> A              
     e( 24 - 24) =      8.33148  eV     1   --> A              
     e( 25 - 25) =      8.99614  eV     1   --> A              
     e( 26 - 26) =      9.05940  eV     1   --> A              
     e( 27 - 27) =      9.64682  eV     1   --> A              
     e( 28 - 28) =      9.99351  eV     1   --> A              
     e( 29 - 29) =     10.97062  eV     1   --> A              
     e( 30 - 30) =     11.23423  eV     1   --> A              

 **************************************************************************

 **************************************************************************

                    xk=(   0.26358,   0.14496,   0.00000  )

     Band symmetry, C_1 (1)     point group:

     e(  1 -  1) =    -21.49586  eV     1   --> A              
     e(  2 -  2) =    -15.26736  eV     1   --> A              
     e(  3 -  3) =     -8.71300  eV     1   --> A              
     e(  4 -  4) =     -7.44574  eV     1   --> A              
     e(  5 -  5) =     -7.20015  eV     1   --> A              
     e(  6 -  6) =     -6.11114  eV     1   --> A              
     e(  7 -  7) =     -5.31932  eV     1   --> A              
     e(  8 -  8) =     -3.65982  eV     1   --> A              
     e(  9 -  9) =     -3.10966  eV     1   --> A              
     e( 10 - 10) =      0.86164  eV     1   --> A              
     e( 11 - 11) =      2.24440  eV     1   --> A              
     e( 12 - 12) =      2.76478  eV     1   --> A              
     e( 13 - 13) =      3.48646  eV     1   --> A              
     e( 14 - 14) =      3.98077  eV     1   --> A              
     e( 15 - 15) =      4.38494  eV     1   --> A              
     e( 16 - 16) =      4.68175  eV     1   --> A              
     e( 17 - 17) =      4.84726  eV     1   --> A              
     e( 18 - 18) =      5.16678  eV     1   --> A              
     e( 19 - 19) =      5.88014  eV     1   --> A              
     e( 20 - 20) =      6.12026  eV     1   --> A              
     e( 21 - 21) =      6.33142  eV     1   --> A              
     e( 22 - 22) =      6.87356  eV     1   --> A              
     e( 23 - 23) =      7.45888  eV     1   --> A              
     e( 24 - 24) =      8.35306  eV     1   --> A              
     e( 25 - 25) =      8.99442  eV     1   --> A              
     e( 26 - 26) =      9.15517  eV     1   --> A              
     e( 27 - 27) =      9.67202  eV     1   --> A              
     e( 28 - 28) =     10.31575  eV     1   --> A              
     e( 29 - 29) =     11.04198  eV     1   --> A              
     e( 30 - 30) =     11.39484  eV     1   --> A              

 **************************************************************************

 **************************************************************************

                    xk=(   0.28241,   0.15532,   0.00000  )

     Band symmetry, C_1 (1)     point group:

     e(  1 -  1) =    -21.46339  eV     1   --> A              
     e(  2 -  2) =    -15.15780  eV     1   --> A              
     e(  3 -  3) =     -8.80447  eV     1   --> A              
     e(  4 -  4) =     -7.37260  eV     1   --> A              
     e(  5 -  5) =     -7.26883  eV     1   --> A              
     e(  6 -  6) =     -6.13761  eV     1   --> A              
     e(  7 -  7) =     -5.45642  eV     1   --> A              
     e(  8 -  8) =     -3.85497  eV     1   --> A              
     e(  9 -  9) =     -3.05074  eV     1   --> A              
     e( 10 - 10) =      1.03562  eV     1   --> A              
     e( 11 - 11) =      2.02046  eV     1   --> A              
     e( 12 - 12) =      2.83791  eV     1   --> A              
     e( 13 - 13) =      3.36482  eV     1   --> A              
     e( 14 - 14) =      4.07277  eV     1   --> A              
     e( 15 - 15) =      4.51655  eV     1   --> A              
     e( 16 - 16) =      4.72144  eV     1   --> A              
     e( 17 - 17) =      4.86834  eV     1   --> A              
     e( 18 - 18) =      5.33798  eV     1   --> A              
     e( 19 - 19) =      5.98829  eV     1   --> A              
     e( 20 - 20) =      6.15090  eV     1   --> A              
     e( 21 - 21) =      6.32717  eV     1   --> A              
     e( 22 - 22) =      7.04559  eV     1   --> A              
     e( 23 - 23) =      7.52820  eV     1   --> A              
     e( 24 - 24) =      8.27364  eV     1   --> A              
     e( 25 - 25) =      9.02174  eV     1   --> A              
     e( 26 - 26) =      9.30358  eV     1   --> A              
     e( 27 - 27) =      9.65557  eV     1   --> A              
     e( 28 - 28) =     10.65095  eV     1   --> A              
     e( 29 - 29) =     11.10987  eV     1   --> A              
     e( 30 - 30) =     11.58653  eV     1   --> A              

 **************************************************************************

 **************************************************************************

                    xk=(   0.30124,   0.16567,   0.00000  )

     Band symmetry, C_1 (1)     point group:

     e(  1 -  1) =    -21.43106  eV     1   --> A              
     e(  2 -  2) =    -15.04496  eV     1   --> A              
     e(  3 -  3) =     -8.89466  eV     1   --> A              
     e(  4 -  4) =     -7.34599  eV     1   --> A              
     e(  5 -  5) =     -7.29239  eV     1   --> A              
     e(  6 -  6) =     -6.22536  eV     1   --> A              
     e(  7 -  7) =     -5.50776  eV     1   --> A              
     e(  8 -  8) =     -4.05682  eV     1   --> A              
     e(  9 -  9) =     -2.99688  eV     1   --> A              
     e( 10 - 10) =      1.19861  eV     1   --> A              
     e( 11 - 11) =      1.80113  eV     1   --> A              
     e( 12 - 12) =      2.90471  eV     1   --> A              
     e( 13 - 13) =      3.22412  eV     1   --> A              
     e( 14 - 14) =      4.17824  eV     1   --> A              
     e( 15 - 15) =      4.63157  eV     1   --> A              
     e( 16 - 16) =      4.78110  eV     1   --> A              
     e( 17 - 17) =      4.94434  eV     1   --> A              
     e( 18 - 18) =      5.52640  eV     1   --> A              
     e( 19 - 19) =      5.97953  eV     1   --> A              
     e( 20 - 20) =      6.23233  eV     1   --> A              
     e( 21 - 21) =      6.44016  eV     1   --> A              
     e( 22 - 22) =      7.21409  eV     1   --> A              
     e( 23 - 23) =      7.60576  eV     1   --> A              
     e( 24 - 24) =      8.13395  eV     1   --> A              
     e( 25 - 25) =      9.10506  eV     1   --> A              
     e( 26 - 26) =      9.43562  eV     1   --> A              
     e( 27 - 27) =      9.66743  eV     1   --> A              
     e( 28 - 28) =     10.88018  eV     1   --> A              
     e( 29 - 29) =     11.15095  eV     1   --> A              
     e( 30 - 30) =     11.78423  eV     1   --> A              

 **************************************************************************

 **************************************************************************

                    xk=(   0.32007,   0.17603,   0.00000  )

     Band symmetry, C_1 (1)     point group:

     e(  1 -  1) =    -21.39926  eV     1   --> A              
     e(  2 -  2) =    -14.92993  eV     1   --> A              
     e(  3 -  3) =     -8.97978  eV     1   --> A              
     e(  4 -  4) =     -7.42427  eV     1   --> A              
     e(  5 -  5) =     -7.22292  eV     1   --> A              
     e(  6 -  6) =     -6.34922  eV     1   --> A              
     e(  7 -  7) =     -5.49027  eV     1   --> A              
     e(  8 -  8) =     -4.26353  eV     1   --> A              
     e(  9 -  9) =     -2.94913  eV     1   --> A              
     e( 10 - 10) =      1.31530  eV     1   --> A              
     e( 11 - 11) =      1.62332  eV     1   --> A              
     e( 12 - 12) =      2.95858  eV     1   --> A              
     e( 13 - 13) =      3.09084  eV     1   --> A              
     e( 14 - 14) =      4.28083  eV     1   --> A              
     e( 15 - 15) =      4.67376  eV     1   --> A              
     e( 16 - 16) =      4.91277  eV     1   --> A              
     e( 17 - 17) =      5.07531  eV     1   --> A              
     e( 18 - 18) =      5.72296  eV     1   --> A              
     e( 19 - 19) =      5.93439  eV     1   --> A              
     e( 20 - 20) =      6.37949  eV     1   --> A              
     e( 21 - 21) =      6.58460  eV     1   --> A              
     e( 22 - 22) =      7.34563  eV     1   --> A              
     e( 23 - 23) =      7.69891  eV     1   --> A              
     e( 24 - 24) =      8.00551  eV     1   --> A              
     e( 25 - 25) =      9.19201  eV     1   --> A              
     e( 26 - 26) =      9.51333  eV     1   --> A              
     e( 27 - 27) =      9.75880  eV     1   --> A              
     e( 28 - 28) =     10.97126  eV     1   --> A              
     e( 29 - 29) =     11.10779  eV     1   --> A              
     e( 30 - 30) =     11.70859  eV     1   --> A              

 **************************************************************************

 **************************************************************************

                    xk=(   0.33889,   0.18638,   0.00000  )

     Band symmetry, C_1 (1)     point group:

     e(  1 -  1) =    -21.36837  eV     1   --> A              
     e(  2 -  2) =    -14.81398  eV     1   --> A              
     e(  3 -  3) =     -9.05716  eV     1   --> A              
     e(  4 -  4) =     -7.50846  eV     1   --> A              
     e(  5 -  5) =     -7.17525  eV     1   --> A              
     e(  6 -  6) =     -6.46473  eV     1   --> A              
     e(  7 -  7) =     -5.43397  eV     1   --> A              
     e(  8 -  8) =     -4.47332  eV     1   --> A              
     e(  9 -  9) =     -2.90832  eV     1   --> A              
     e( 10 - 10) =      1.24905  eV     1   --> A              
     e( 11 - 11) =      1.62010  eV     1   --> A              
     e( 12 - 12) =      2.98061  eV     1   --> A              
     e( 13 - 13) =      2.99822  eV     1   --> A              
     e( 14 - 14) =      4.35248  eV     1   --> A              
     e( 15 - 15) =      4.71143  eV     1   --> A              
     e( 16 - 16) =      5.07265  eV     1   --> A              
     e( 17 - 17) =      5.25266  eV     1   --> A              
     e( 18 - 18) =      5.86168  eV     1   --> A              
     e( 19 - 19) =      5.98438  eV     1   --> A              
     e( 20 - 20) =      6.54216  eV     1   --> A              
     e( 21 - 21) =      6.74551  eV     1   --> A              
     e( 22 - 22) =      7.36357  eV     1   --> A              
     e( 23 - 23) =      7.83370  eV     1   --> A              
     e( 24 - 24) =      7.96498  eV     1   --> A              
     e( 25 - 25) =      9.23026  eV     1   --> A              
     e( 26 - 26) =      9.57654  eV     1   --> A              
     e( 27 - 27) =      9.91262  eV     1   --> A              
     e( 28 - 28) =     10.89654  eV     1   --> A              
     e( 29 - 29) =     11.01395  eV     1   --> A              
     e( 30 - 30) =     11.69202  eV     1   --> A              

 **************************************************************************

 **************************************************************************

                    xk=(   0.35772,   0.19674,   0.00000  )

     Band symmetry, C_1 (1)     point group:

     e(  1 -  1) =    -21.33876  eV     1   --> A              
     e(  2 -  2) =    -14.69848  eV     1   --> A              
     e(  3 -  3) =     -9.12487  eV     1   --> A              
     e(  4 -  4) =     -7.59717  eV     1   --> A              
     e(  5 -  5) =     -7.17212  eV     1   --> A              
     e(  6 -  6) =     -6.53358  eV     1   --> A              
     e(  7 -  7) =     -5.35699  eV     1   --> A              
     e(  8 -  8) =     -4.68441  eV     1   --> A              
     e(  9 -  9) =     -2.87510  eV     1   --> A              
     e( 10 - 10) =      1.06165  eV     1   --> A              
     e( 11 - 11) =      1.72288  eV     1   --> A              
     e( 12 - 12) =      2.91016  eV     1   --> A              
     e( 13 - 13) =      3.02025  eV     1   --> A              
     e( 14 - 14) =      4.36346  eV     1   --> A              
     e( 15 - 15) =      4.80042  eV     1   --> A              
     e( 16 - 16) =      5.24020  eV     1   --> A              
     e( 17 - 17) =      5.46250  eV     1   --> A              
     e( 18 - 18) =      5.89398  eV     1   --> A              
     e( 19 - 19) =      6.18600  eV     1   --> A              
     e( 20 - 20) =      6.71231  eV     1   --> A              
     e( 21 - 21) =      6.91821  eV     1   --> A              
     e( 22 - 22) =      7.26379  eV     1   --> A              
     e( 23 - 23) =      7.99601  eV     1   --> A              
     e( 24 - 24) =      8.04763  eV     1   --> A              
     e( 25 - 25) =      9.20215  eV     1   --> A              
     e( 26 - 26) =      9.66370  eV     1   --> A              
     e( 27 - 27) =     10.08029  eV     1   --> A              
     e( 28 - 28) =     10.68648  eV     1   --> A              
     e( 29 - 29) =     10.95015  eV     1   --> A              
     e( 30 - 30) =     11.70123  eV     1   --> A              

 **************************************************************************

 **************************************************************************

                    xk=(   0.37655,   0.20709,   0.00000  )

     Band symmetry, C_1 (1)     point group:

     e(  1 -  1) =    -21.31074  eV     1   --> A              
     e(  2 -  2) =    -14.58497  eV     1   --> A              
     e(  3 -  3) =     -9.18148  eV     1   --> A              
     e(  4 -  4) =     -7.68983  eV     1   --> A              
     e(  5 -  5) =     -7.22245  eV     1   --> A              
     e(  6 -  6) =     -6.53967  eV     1   --> A              
     e(  7 -  7) =     -5.26855  eV     1   --> A              
     e(  8 -  8) =     -4.89443  eV     1   --> A              
     e(  9 -  9) =     -2.84977  eV     1   --> A              
     e( 10 - 10) =      0.86029  eV     1   --> A              
     e( 11 - 11) =      1.81674  eV     1   --> A              
     e( 12 - 12) =      2.88726  eV     1   --> A              
     e( 13 - 13) =      3.02948  eV     1   --> A              
     e( 14 - 14) =      4.32338  eV     1   --> A              
     e( 15 - 15) =      4.93825  eV     1   --> A              
     e( 16 - 16) =      5.41459  eV     1   --> A              
     e( 17 - 17) =      5.68908  eV     1   --> A              
     e( 18 - 18) =      5.95164  eV     1   --> A              
     e( 19 - 19) =      6.40076  eV     1   --> A              
     e( 20 - 20) =      6.88404  eV     1   --> A              
     e( 21 - 21) =      7.08200  eV     1   --> A              
     e( 22 - 22) =      7.15963  eV     1   --> A              
     e( 23 - 23) =      8.10801  eV     1   --> A              
     e( 24 - 24) =      8.25669  eV     1   --> A              
     e( 25 - 25) =      9.13288  eV     1   --> A              
     e( 26 - 26) =      9.74066  eV     1   --> A              
     e( 27 - 27) =     10.20872  eV     1   --> A              
     e( 28 - 28) =     10.49493  eV     1   --> A              
     e( 29 - 29) =     10.89761  eV     1   --> A              
     e( 30 - 30) =     11.64805  eV     1   --> A              

 **************************************************************************

 **************************************************************************

                    xk=(   0.39537,   0.21744,   0.00000  )

     Band symmetry, C_1 (1)     point group:

     e(  1 -  1) =    -21.28463  eV     1   --> A              
     e(  2 -  2) =    -14.47509  eV     1   --> A              
     e(  3 -  3) =     -9.22598  eV     1   --> A              
     e(  4 -  4) =     -7.78587  eV     1   --> A              
     e(  5 -  5) =     -7.30633  eV     1   --> A              
     e(  6 -  6) =     -6.49990  eV     1   --> A              
     e(  7 -  7) =     -5.18556  eV     1   --> A              
     e(  8 -  8) =     -5.08932  eV     1   --> A              
     e(  9 -  9) =     -2.83221  eV     1   --> A              
     e( 10 - 10) =      0.66242  eV     1   --> A              
     e( 11 - 11) =      1.88133  eV     1   --> A              
     e( 12 - 12) =      2.91403  eV     1   --> A              
     e( 13 - 13) =      3.03033  eV     1   --> A              
     e( 14 - 14) =      4.25742  eV     1   --> A              
     e( 15 - 15) =      5.10397  eV     1   --> A              
     e( 16 - 16) =      5.59099  eV     1   --> A              
     e( 17 - 17) =      5.90553  eV     1   --> A              
     e( 18 - 18) =      6.06497  eV     1   --> A              
     e( 19 - 19) =      6.57405  eV     1   --> A              
     e( 20 - 20) =      7.00848  eV     1   --> A              
     e( 21 - 21) =      7.12031  eV     1   --> A              
     e( 22 - 22) =      7.30363  eV     1   --> A              
     e( 23 - 23) =      8.22394  eV     1   --> A              
     e( 24 - 24) =      8.48631  eV     1   --> A              
     e( 25 - 25) =      9.05054  eV     1   --> A              
     e( 26 - 26) =      9.76757  eV     1   --> A              
     e( 27 - 27) =     10.11454  eV     1   --> A              
     e( 28 - 28) =     10.52933  eV     1   --> A              
     e( 29 - 29) =     10.88471  eV     1   --> A              
     e( 30 - 30) =     11.46291  eV     1   --> A              

 **************************************************************************

 **************************************************************************

                    xk=(   0.41420,   0.22780,   0.00000  )

     Band symmetry, C_1 (1)     point group:

     e(  1 -  1) =    -21.26068  eV     1   --> A              
     e(  2 -  2) =    -14.37060  eV     1   --> A              
     e(  3 -  3) =     -9.25767  eV     1   --> A              
     e(  4 -  4) =     -7.88460  eV     1   --> A              
     e(  5 -  5) =     -7.39759  eV     1   --> A              
     e(  6 -  6) =     -6.43911  eV     1   --> A              
     e(  7 -  7) =     -5.32246  eV     1   --> A              
     e(  8 -  8) =     -5.05609  eV     1   --> A              
     e(  9 -  9) =     -2.82174  eV     1   --> A              
     e( 10 - 10) =      0.47250  eV     1   --> A              
     e( 11 - 11) =      1.91919  eV     1   --> A              
     e( 12 - 12) =      2.96282  eV     1   --> A              
     e( 13 - 13) =      3.04559  eV     1   --> A              
     e( 14 - 14) =      4.18089  eV     1   --> A              
     e( 15 - 15) =      5.28521  eV     1   --> A              
     e( 16 - 16) =      5.75374  eV     1   --> A              
     e( 17 - 17) =      6.06596  eV     1   --> A              
     e( 18 - 18) =      6.26856  eV     1   --> A              
     e( 19 - 19) =      6.63646  eV     1   --> A              
     e( 20 - 20) =      7.13049  eV     1   --> A              
     e( 21 - 21) =      7.28975  eV     1   --> A              
     e( 22 - 22) =      7.49373  eV     1   --> A              
     e( 23 - 23) =      8.33450  eV     1   --> A              
     e( 24 - 24) =      8.68060  eV     1   --> A              
     e( 25 - 25) =      9.01185  eV     1   --> A              
     e( 26 - 26) =      9.72246  eV     1   --> A              
     e( 27 - 27) =      9.92499  eV     1   --> A              
     e( 28 - 28) =     10.66013  eV     1   --> A              
     e( 29 - 29) =     10.91716  eV     1   --> A              
     e( 30 - 30) =     11.24231  eV     1   --> A              

 **************************************************************************

 **************************************************************************

                    xk=(   0.43303,   0.23815,   0.00000  )

     Band symmetry, C_1 (1)     point group:

     e(  1 -  1) =    -21.23913  eV     1   --> A              
     e(  2 -  2) =    -14.27323  eV     1   --> A              
     e(  3 -  3) =     -9.27612  eV     1   --> A              
     e(  4 -  4) =     -7.98530  eV     1   --> A              
     e(  5 -  5) =     -7.47992  eV     1   --> A              
     e(  6 -  6) =     -6.37293  eV     1   --> A              
     e(  7 -  7) =     -5.52290  eV     1   --> A              
     e(  8 -  8) =     -4.95238  eV     1   --> A              
     e(  9 -  9) =     -2.81707  eV     1   --> A              
     e( 10 - 10) =      0.29293  eV     1   --> A              
     e( 11 - 11) =      1.94167  eV     1   --> A              
     e( 12 - 12) =      2.96886  eV     1   --> A              
     e( 13 - 13) =      3.12643  eV     1   --> A              
     e( 14 - 14) =      4.10256  eV     1   --> A              
     e( 15 - 15) =      5.47327  eV     1   --> A              
     e( 16 - 16) =      5.86677  eV     1   --> A              
     e( 17 - 17) =      6.20913  eV     1   --> A              
     e( 18 - 18) =      6.50177  eV     1   --> A              
     e( 19 - 19) =      6.69108  eV     1   --> A              
     e( 20 - 20) =      7.35163  eV     1   --> A              
     e( 21 - 21) =      7.48663  eV     1   --> A              
     e( 22 - 22) =      7.67777  eV     1   --> A              
     e( 23 - 23) =      8.41241  eV     1   --> A              
     e( 24 - 24) =      8.73110  eV     1   --> A              
     e( 25 - 25) =      9.14696  eV     1   --> A              
     e( 26 - 26) =      9.59495  eV     1   --> A              
     e( 27 - 27) =      9.79542  eV     1   --> A              
     e( 28 - 28) =     10.66013  eV     1   --> A              
     e( 29 - 29) =     10.99970  eV     1   --> A              
     e( 30 - 30) =     11.09465  eV     1   --> A              

 **************************************************************************

 **************************************************************************

                    xk=(   0.45186,   0.24851,   0.00000  )

     Band symmetry, C_1 (1)     point group:

     e(  1 -  1) =    -21.22014  eV     1   --> A              
     e(  2 -  2) =    -14.18469  eV     1   --> A              
     e(  3 -  3) =     -9.28117  eV     1   --> A              
     e(  4 -  4) =     -8.08707  eV     1   --> A              
     e(  5 -  5) =     -7.54475  eV     1   --> A              
     e(  6 -  6) =     -6.30946  eV     1   --> A              
     e(  7 -  7) =     -5.71998  eV     1   --> A              
     e(  8 -  8) =     -4.84676  eV     1   --> A              
     e(  9 -  9) =     -2.81627  eV     1   --> A              
     e( 10 - 10) =      0.12573  eV     1   --> A              
     e( 11 - 11) =      1.95921  eV     1   --> A              
     e( 12 - 12) =      2.95355  eV     1   --> A              
     e( 13 - 13) =      3.23652  eV     1   --> A              
     e( 14 - 14) =      4.02856  eV     1   --> A              
     e( 15 - 15) =      5.64953  eV     1   --> A              
     e( 16 - 16) =      5.91097  eV     1   --> A              
     e( 17 - 17) =      6.38036  eV     1   --> A              
     e( 18 - 18) =      6.67193  eV     1   --> A              
     e( 19 - 19) =      6.89819  eV     1   --> A              
     e( 20 - 20) =      7.58440  eV     1   --> A              
     e( 21 - 21) =      7.70575  eV     1   --> A              
     e( 22 - 22) =      7.84104  eV     1   --> A              
     e( 23 - 23) =      8.42445  eV     1   --> A              
     e( 24 - 24) =      8.73846  eV     1   --> A              
     e( 25 - 25) =      9.33423  eV     1   --> A              
     e( 26 - 26) =      9.48912  eV     1   --> A              
     e( 27 - 27) =      9.73408  eV     1   --> A              
     e( 28 - 28) =     10.50806  eV     1   --> A              
     e( 29 - 29) =     10.87326  eV     1   --> A              
     e( 30 - 30) =     10.93236  eV     1   --> A              

 **************************************************************************

 **************************************************************************

                    xk=(   0.47068,   0.25886,   0.00000  )

     Band symmetry, C_1 (1)     point group:

     e(  1 -  1) =    -21.20381  eV     1   --> A              
     e(  2 -  2) =    -14.10651  eV     1   --> A              
     e(  3 -  3) =     -9.27298  eV     1   --> A              
     e(  4 -  4) =     -8.18891  eV     1   --> A              
     e(  5 -  5) =     -7.58764  eV     1   --> A              
     e(  6 -  6) =     -6.25293  eV     1   --> A              
     e(  7 -  7) =     -5.91035  eV     1   --> A              
     e(  8 -  8) =     -4.74467  eV     1   --> A              
     e(  9 -  9) =     -2.81698  eV     1   --> A              
     e( 10 - 10) =     -0.02693  eV     1   --> A              
     e( 11 - 11) =      1.97712  eV     1   --> A              
     e( 12 - 12) =      2.93846  eV     1   --> A              
     e( 13 - 13) =      3.34116  eV     1   --> A              
     e( 14 - 14) =      3.96455  eV     1   --> A              
     e( 15 - 15) =      5.73684  eV     1   --> A              
     e( 16 - 16) =      5.99262  eV     1   --> A              
     e( 17 - 17) =      6.57864  eV     1   --> A              
     e( 18 - 18) =      6.83284  eV     1   --> A              
     e( 19 - 19) =      7.19064  eV     1   --> A              
     e( 20 - 20) =      7.74277  eV     1   --> A              
     e( 21 - 21) =      7.95105  eV     1   --> A              
     e( 22 - 22) =      7.99574  eV     1   --> A              
     e( 23 - 23) =      8.40112  eV     1   --> A              
     e( 24 - 24) =      8.78525  eV     1   --> A              
     e( 25 - 25) =      9.22686  eV     1   --> A              
     e( 26 - 26) =      9.68211  eV     1   --> A              
     e( 27 - 27) =      9.74777  eV     1   --> A              
     e( 28 - 28) =     10.32693  eV     1   --> A              
     e( 29 - 29) =     10.63321  eV     1   --> A              
     e( 30 - 30) =     10.72497  eV     1   --> A              

 **************************************************************************

 **************************************************************************

                    xk=(   0.48951,   0.26922,   0.00000  )

     Band symmetry, C_1 (1)     point group:

     e(  1 -  1) =    -21.19022  eV     1   --> A              
     e(  2 -  2) =    -14.03994  eV     1   --> A              
     e(  3 -  3) =     -9.25218  eV     1   --> A              
     e(  4 -  4) =     -8.28956  eV     1   --> A              
     e(  5 -  5) =     -7.60658  eV     1   --> A              
     e(  6 -  6) =     -6.20612  eV     1   --> A              
     e(  7 -  7) =     -6.09107  eV     1   --> A              
     e(  8 -  8) =     -4.65072  eV     1   --> A              
     e(  9 -  9) =     -2.81675  eV     1   --> A              
     e( 10 - 10) =     -0.16262  eV     1   --> A              
     e( 11 - 11) =      1.99567  eV     1   --> A              
     e( 12 - 12) =      2.93225  eV     1   --> A              
     e( 13 - 13) =      3.41980  eV     1   --> A              
     e( 14 - 14) =      3.91703  eV     1   --> A              
     e( 15 - 15) =      5.71828  eV     1   --> A              
     e( 16 - 16) =      6.17521  eV     1   --> A              
     e( 17 - 17) =      6.78873  eV     1   --> A              
     e( 18 - 18) =      7.00114  eV     1   --> A              
     e( 19 - 19) =      7.50502  eV     1   --> A              
     e( 20 - 20) =      7.78654  eV     1   --> A              
     e( 21 - 21) =      8.10888  eV     1   --> A              
     e( 22 - 22) =      8.22653  eV     1   --> A              
     e( 23 - 23) =      8.42764  eV     1   --> A              
     e( 24 - 24) =      8.86719  eV     1   --> A              
     e( 25 - 25) =      9.09740  eV     1   --> A              
     e( 26 - 26) =      9.67901  eV     1   --> A              
     e( 27 - 27) =     10.00676  eV     1   --> A              
     e( 28 - 28) =     10.19113  eV     1   --> A              
     e( 29 - 29) =     10.37326  eV     1   --> A              
     e( 30 - 30) =     10.57042  eV     1   --> A              

 **************************************************************************

 **************************************************************************

                    xk=(   0.50834,   0.27957,   0.00000  )

     Band symmetry, C_1 (1)     point group:

     e(  1 -  1) =    -21.17936  eV     1   --> A              
     e(  2 -  2) =    -13.98586  eV     1   --> A              
     e(  3 -  3) =     -9.21994  eV     1   --> A              
     e(  4 -  4) =     -8.38733  eV     1   --> A              
     e(  5 -  5) =     -7.60166  eV     1   --> A              
     e(  6 -  6) =     -6.26512  eV     1   --> A              
     e(  7 -  7) =     -6.16418  eV     1   --> A              
     e(  8 -  8) =     -4.56947  eV     1   --> A              
     e(  9 -  9) =     -2.81360  eV     1   --> A              
     e( 10 - 10) =     -0.27854  eV     1   --> A              
     e( 11 - 11) =      2.01187  eV     1   --> A              
     e( 12 - 12) =      2.94198  eV     1   --> A              
     e( 13 - 13) =      3.45656  eV     1   --> A              
     e( 14 - 14) =      3.89149  eV     1   --> A              
     e( 15 - 15) =      5.68934  eV     1   --> A              
     e( 16 - 16) =      6.38750  eV     1   --> A              
     e( 17 - 17) =      6.99349  eV     1   --> A              
     e( 18 - 18) =      7.13723  eV     1   --> A              
     e( 19 - 19) =      7.74434  eV     1   --> A              
     e( 20 - 20) =      7.87231  eV     1   --> A              
     e( 21 - 21) =      8.19120  eV     1   --> A              
     e( 22 - 22) =      8.32994  eV     1   --> A              
     e( 23 - 23) =      8.66060  eV     1   --> A              
     e( 24 - 24) =      8.92806  eV     1   --> A              
     e( 25 - 25) =      9.05356  eV     1   --> A              
     e( 26 - 26) =      9.62058  eV     1   --> A              
     e( 27 - 27) =     10.01271  eV     1   --> A              
     e( 28 - 28) =     10.11315  eV     1   --> A              
     e( 29 - 29) =     10.36880  eV     1   --> A              
     e( 30 - 30) =     10.45913  eV     1   --> A              

 **************************************************************************

 **************************************************************************

                    xk=(   0.52717,   0.28993,   0.00000  )

     Band symmetry, C_1 (1)     point group:

     e(  1 -  1) =    -21.17118  eV     1   --> A              
     e(  2 -  2) =    -13.94468  eV     1   --> A              
     e(  3 -  3) =     -9.17860  eV     1   --> A              
     e(  4 -  4) =     -8.47953  eV     1   --> A              
     e(  5 -  5) =     -7.57551  eV     1   --> A              
     e(  6 -  6) =     -6.41867  eV     1   --> A              
     e(  7 -  7) =     -6.13686  eV     1   --> A              
     e(  8 -  8) =     -4.50483  eV     1   --> A              
     e(  9 -  9) =     -2.80683  eV     1   --> A              
     e( 10 - 10) =     -0.37170  eV     1   --> A              
     e( 11 - 11) =      2.02202  eV     1   --> A              
     e( 12 - 12) =      2.97277  eV     1   --> A              
     e( 13 - 13) =      3.44842  eV     1   --> A              
     e( 14 - 14) =      3.88449  eV     1   --> A              
     e( 15 - 15) =      5.67967  eV     1   --> A              
     e( 16 - 16) =      6.60460  eV     1   --> A              
     e( 17 - 17) =      7.12614  eV     1   --> A              
     e( 18 - 18) =      7.23563  eV     1   --> A              
     e( 19 - 19) =      7.80216  eV     1   --> A              
     e( 20 - 20) =      8.13180  eV     1   --> A              
     e( 21 - 21) =      8.24567  eV     1   --> A              
     e( 22 - 22) =      8.42020  eV     1   --> A              
     e( 23 - 23) =      8.85538  eV     1   --> A              
     e( 24 - 24) =      9.01023  eV     1   --> A              
     e( 25 - 25) =      9.12966  eV     1   --> A              
     e( 26 - 26) =      9.57126  eV     1   --> A              
     e( 27 - 27) =      9.83515  eV     1   --> A              
     e( 28 - 28) =      9.92723  eV     1   --> A              
     e( 29 - 29) =     10.22982  eV     1   --> A              
     e( 30 - 30) =     10.46680  eV     1   --> A              

 **************************************************************************

 **************************************************************************

                    xk=(   0.54599,   0.30028,   0.00000  )

     Band symmetry, C_1 (1)     point group:

     e(  1 -  1) =    -21.16556  eV     1   --> A              
     e(  2 -  2) =    -13.91631  eV     1   --> A              
     e(  3 -  3) =     -9.13285  eV     1   --> A              
     e(  4 -  4) =     -8.56142  eV     1   --> A              
     e(  5 -  5) =     -7.53480  eV     1   --> A              
     e(  6 -  6) =     -6.55037  eV     1   --> A              
     e(  7 -  7) =     -6.11779  eV     1   --> A              
     e(  8 -  8) =     -4.45927  eV     1   --> A              
     e(  9 -  9) =     -2.79757  eV     1   --> A              
     e( 10 - 10) =     -0.43929  eV     1   --> A              
     e( 11 - 11) =      2.02446  eV     1   --> A              
     e( 12 - 12) =      3.02480  eV     1   --> A              
     e( 13 - 13) =      3.40823  eV     1   --> A              
     e( 14 - 14) =      3.88330  eV     1   --> A              
     e( 15 - 15) =      5.69047  eV     1   --> A              
     e( 16 - 16) =      6.80886  eV     1   --> A              
     e( 17 - 17) =      7.10957  eV     1   --> A              
     e( 18 - 18) =      7.35357  eV     1   --> A              
     e( 19 - 19) =      7.88416  eV     1   --> A              
     e( 20 - 20) =      8.17401  eV     1   --> A              
     e( 21 - 21) =      8.44525  eV     1   --> A              
     e( 22 - 22) =      8.58942  eV     1   --> A              
     e( 23 - 23) =      8.84754  eV     1   --> A              
     e( 24 - 24) =      9.11104  eV     1   --> A              
     e( 25 - 25) =      9.34156  eV     1   --> A              
     e( 26 - 26) =      9.55863  eV     1   --> A              
     e( 27 - 27) =      9.66707  eV     1   --> A              
     e( 28 - 28) =      9.81684  eV     1   --> A              
     e( 29 - 29) =     10.01049  eV     1   --> A              
     e( 30 - 30) =     10.39407  eV     1   --> A              

 **************************************************************************

 **************************************************************************

                    xk=(   0.56482,   0.31064,   0.00000  )

     Band symmetry, C_1 (1)     point group:

     e(  1 -  1) =    -21.16237  eV     1   --> A              
     e(  2 -  2) =    -13.90016  eV     1   --> A              
     e(  3 -  3) =     -9.09214  eV     1   --> A              
     e(  4 -  4) =     -8.62365  eV     1   --> A              
     e(  5 -  5) =     -7.49303  eV     1   --> A              
     e(  6 -  6) =     -6.64609  eV     1   --> A              
     e(  7 -  7) =     -6.10712  eV     1   --> A              
     e(  8 -  8) =     -4.43334  eV     1   --> A              
     e(  9 -  9) =     -2.78883  eV     1   --> A              
     e( 10 - 10) =     -0.47934  eV     1   --> A              
     e( 11 - 11) =      2.02119  eV     1   --> A              
     e( 12 - 12) =      3.08788  eV     1   --> A              
     e( 13 - 13) =      3.35583  eV     1   --> A              
     e( 14 - 14) =      3.87924  eV     1   --> A              
     e( 15 - 15) =      5.71003  eV     1   --> A              
     e( 16 - 16) =      6.94159  eV     1   --> A              
     e( 17 - 17) =      7.10004  eV     1   --> A              
     e( 18 - 18) =      7.39593  eV     1   --> A              
     e( 19 - 19) =      7.97234  eV     1   --> A              
     e( 20 - 20) =      8.22362  eV     1   --> A              
     e( 21 - 21) =      8.46015  eV     1   --> A              
     e( 22 - 22) =      8.80629  eV     1   --> A              
     e( 23 - 23) =      8.95992  eV     1   --> A              
     e( 24 - 24) =      9.09956  eV     1   --> A              
     e( 25 - 25) =      9.36525  eV     1   --> A              
     e( 26 - 26) =      9.47952  eV     1   --> A              
     e( 27 - 27) =      9.75083  eV     1   --> A              
     e( 28 - 28) =      9.82538  eV     1   --> A              
     e( 29 - 29) =      9.89567  eV     1   --> A              
     e( 30 - 30) =     10.18844  eV     1   --> A              

 **************************************************************************

 **************************************************************************

                    xk=(   0.56524,   0.30028,   0.00000  )

     Band symmetry, C_1 (1)     point group:

     e(  1 -  1) =    -21.16343  eV     1   --> A              
     e(  2 -  2) =    -13.90542  eV     1   --> A              
     e(  3 -  3) =     -9.11317  eV     1   --> A              
     e(  4 -  4) =     -8.59452  eV     1   --> A              
     e(  5 -  5) =     -7.51821  eV     1   --> A              
     e(  6 -  6) =     -6.60096  eV     1   --> A              
     e(  7 -  7) =     -6.11036  eV     1   --> A              
     e(  8 -  8) =     -4.44125  eV     1   --> A              
     e(  9 -  9) =     -2.79449  eV     1   --> A              
     e( 10 - 10) =     -0.46667  eV     1   --> A              
     e( 11 - 11) =      2.02806  eV     1   --> A              
     e( 12 - 12) =      3.05189  eV     1   --> A              
     e( 13 - 13) =      3.37593  eV     1   --> A              
     e( 14 - 14) =      3.89056  eV     1   --> A              
     e( 15 - 15) =      5.69709  eV     1   --> A              
     e( 16 - 16) =      6.93345  eV     1   --> A              
     e( 17 - 17) =      7.05967  eV     1   --> A              
     e( 18 - 18) =      7.37303  eV     1   --> A              
     e( 19 - 19) =      7.88111  eV     1   --> A              
     e( 20 - 20) =      8.26579  eV     1   --> A              
     e( 21 - 21) =      8.43119  eV     1   --> A              
     e( 22 - 22) =      8.84260  eV     1   --> A              
     e( 23 - 23) =      8.88191  eV     1   --> A              
     e( 24 - 24) =      9.09175  eV     1   --> A              
     e( 25 - 25) =      9.28746  eV     1   --> A              
     e( 26 - 26) =      9.51628  eV     1   --> A              
     e( 27 - 27) =      9.71391  eV     1   --> A              
     e( 28 - 28) =      9.87502  eV     1   --> A              
     e( 29 - 29) =      9.98518  eV     1   --> A              
     e( 30 - 30) =     10.12719  eV     1   --> A              

 **************************************************************************

 **************************************************************************

                    xk=(   0.56567,   0.28993,   0.00000  )

     Band symmetry, C_1 (1)     point group:

     e(  1 -  1) =    -21.16485  eV     1   --> A              
     e(  2 -  2) =    -13.91240  eV     1   --> A              
     e(  3 -  3) =     -9.13930  eV     1   --> A              
     e(  4 -  4) =     -8.55736  eV     1   --> A              
     e(  5 -  5) =     -7.55092  eV     1   --> A              
     e(  6 -  6) =     -6.54123  eV     1   --> A              
     e(  7 -  7) =     -6.11444  eV     1   --> A              
     e(  8 -  8) =     -4.45147  eV     1   --> A              
     e(  9 -  9) =     -2.80268  eV     1   --> A              
     e( 10 - 10) =     -0.45074  eV     1   --> A              
     e( 11 - 11) =      2.03942  eV     1   --> A              
     e( 12 - 12) =      3.01046  eV     1   --> A              
     e( 13 - 13) =      3.39119  eV     1   --> A              
     e( 14 - 14) =      3.90938  eV     1   --> A              
     e( 15 - 15) =      5.68109  eV     1   --> A              
     e( 16 - 16) =      6.89036  eV     1   --> A              
     e( 17 - 17) =      7.04061  eV     1   --> A              
     e( 18 - 18) =      7.33168  eV     1   --> A              
     e( 19 - 19) =      7.78062  eV     1   --> A              
     e( 20 - 20) =      8.29278  eV     1   --> A              
     e( 21 - 21) =      8.43279  eV     1   --> A              
     e( 22 - 22) =      8.80075  eV     1   --> A              
     e( 23 - 23) =      8.84232  eV     1   --> A              
     e( 24 - 24) =      9.12229  eV     1   --> A              
     e( 25 - 25) =      9.22165  eV     1   --> A              
     e( 26 - 26) =      9.52203  eV     1   --> A              
     e( 27 - 27) =      9.65667  eV     1   --> A              
     e( 28 - 28) =      9.87579  eV     1   --> A              
     e( 29 - 29) =     10.05041  eV     1   --> A              
     e( 30 - 30) =     10.20395  eV     1   --> A              

 **************************************************************************

 **************************************************************************

                    xk=(   0.56609,   0.27957,   0.00000  )

     Band symmetry, C_1 (1)     point group:

     e(  1 -  1) =    -21.16660  eV     1   --> A              
     e(  2 -  2) =    -13.92091  eV     1   --> A              
     e(  3 -  3) =     -9.16881  eV     1   --> A              
     e(  4 -  4) =     -8.51403  eV     1   --> A              
     e(  5 -  5) =     -7.58908  eV     1   --> A              
     e(  6 -  6) =     -6.46955  eV     1   --> A              
     e(  7 -  7) =     -6.11898  eV     1   --> A              
     e(  8 -  8) =     -4.46361  eV     1   --> A              
     e(  9 -  9) =     -2.81335  eV     1   --> A              
     e( 10 - 10) =     -0.43262  eV     1   --> A              
     e( 11 - 11) =      2.05606  eV     1   --> A              
     e( 12 - 12) =      2.96615  eV     1   --> A              
     e( 13 - 13) =      3.39811  eV     1   --> A              
     e( 14 - 14) =      3.93586  eV     1   --> A              
     e( 15 - 15) =      5.66398  eV     1   --> A              
     e( 16 - 16) =      6.80386  eV     1   --> A              
     e( 17 - 17) =      7.04382  eV     1   --> A              
     e( 18 - 18) =      7.27987  eV     1   --> A              
     e( 19 - 19) =      7.68451  eV     1   --> A              
     e( 20 - 20) =      8.27319  eV     1   --> A              
     e( 21 - 21) =      8.48839  eV     1   --> A              
     e( 22 - 22) =      8.73168  eV     1   --> A              
     e( 23 - 23) =      8.80693  eV     1   --> A              
     e( 24 - 24) =      9.09026  eV     1   --> A              
     e( 25 - 25) =      9.25427  eV     1   --> A              
     e( 26 - 26) =      9.49802  eV     1   --> A              
     e( 27 - 27) =      9.60235  eV     1   --> A              
     e( 28 - 28) =      9.85271  eV     1   --> A              
     e( 29 - 29) =     10.04844  eV     1   --> A              
     e( 30 - 30) =     10.25556  eV     1   --> A              

 **************************************************************************

 **************************************************************************

                    xk=(   0.56652,   0.26922,   0.00000  )

     Band symmetry, C_1 (1)     point group:

     e(  1 -  1) =    -21.16866  eV     1   --> A              
     e(  2 -  2) =    -13.93076  eV     1   --> A              
     e(  3 -  3) =     -9.20041  eV     1   --> A              
     e(  4 -  4) =     -8.46593  eV     1   --> A              
     e(  5 -  5) =     -7.63087  eV     1   --> A              
     e(  6 -  6) =     -6.38875  eV     1   --> A              
     e(  7 -  7) =     -6.12315  eV     1   --> A              
     e(  8 -  8) =     -4.47730  eV     1   --> A              
     e(  9 -  9) =     -2.82635  eV     1   --> A              
     e( 10 - 10) =     -0.41345  eV     1   --> A              
     e( 11 - 11) =      2.07862  eV     1   --> A              
     e( 12 - 12) =      2.92047  eV     1   --> A              
     e( 13 - 13) =      3.39561  eV     1   --> A              
     e( 14 - 14) =      3.96875  eV     1   --> A              
     e( 15 - 15) =      5.64777  eV     1   --> A              
     e( 16 - 16) =      6.68534  eV     1   --> A              
     e( 17 - 17) =      7.04493  eV     1   --> A              
     e( 18 - 18) =      7.23411  eV     1   --> A              
     e( 19 - 19) =      7.59863  eV     1   --> A              
     e( 20 - 20) =      8.23321  eV     1   --> A              
[...]

 **************************************************************************

                    xk=(   0.15401,   0.00000,   0.00000  )

     Band symmetry, C_s (m)     point group:

     e(  1 -  1) =    -21.69216  eV     1   --> A'             
     e(  2 -  2) =    -15.86508  eV     1   --> A'             
     e(  3 -  3) =     -8.49106  eV     1   --> A'             
     e(  4 -  4) =     -7.31409  eV     1   --> A'             
     e(  5 -  5) =     -6.86016  eV     1   --> A''            
     e(  6 -  6) =     -6.41733  eV     1   --> A'             
     e(  7 -  7) =     -3.73949  eV     1   --> A'             
     e(  8 -  8) =     -3.42747  eV     1   --> A'             
     e(  9 -  9) =     -2.56373  eV     1   --> A''            
     e( 10 - 10) =     -0.25883  eV     1   --> A'             
     e( 11 - 11) =      2.10578  eV     1   --> A'             
     e( 12 - 12) =      2.98863  eV     1   --> A'             
     e( 13 - 13) =      3.31886  eV     1   --> A'             
     e( 14 - 14) =      3.87614  eV     1   --> A'             
     e( 15 - 15) =      4.08231  eV     1   --> A'             
     e( 16 - 16) =      4.34294  eV     1   --> A'             
     e( 17 - 17) =      4.95889  eV     1   --> A'             
     e( 18 - 18) =      5.32539  eV     1   --> A'             
     e( 19 - 19) =      5.57453  eV     1   --> A''            
     e( 20 - 20) =      5.93169  eV     1   --> A'             
     e( 21 - 21) =      6.04484  eV     1   --> A'             
     e( 22 - 22) =      6.95196  eV     1   --> A'             
     e( 23 - 23) =      7.01528  eV     1   --> A''            
     e( 24 - 24) =      7.69619  eV     1   --> A'             
     e( 25 - 25) =      8.30431  eV     1   --> A'             
     e( 26 - 26) =      8.42782  eV     1   --> A''            
     e( 27 - 27) =      9.27680  eV     1   --> A'             
     e( 28 - 28) =     10.40661  eV     1   --> A'             
     e( 29 - 29) =     10.55507  eV     1   --> A'             
     e( 30 - 30) =     10.99670  eV     1   --> A''            

 **************************************************************************

 **************************************************************************

                    xk=(   0.13476,   0.00000,   0.00000  )

     Band symmetry, C_s (m)     point group:

     e(  1 -  1) =    -21.71122  eV     1   --> A'             
     e(  2 -  2) =    -15.91827  eV     1   --> A'             
     e(  3 -  3) =     -8.51745  eV     1   --> A'             
     e(  4 -  4) =     -7.21487  eV     1   --> A'             
     e(  5 -  5) =     -6.83924  eV     1   --> A''            
     e(  6 -  6) =     -6.45439  eV     1   --> A'             
     e(  7 -  7) =     -3.73892  eV     1   --> A'             
     e(  8 -  8) =     -3.23696  eV     1   --> A'             
     e(  9 -  9) =     -2.49636  eV     1   --> A''            
     e( 10 - 10) =     -0.37281  eV     1   --> A'             
     e( 11 - 11) =      2.04333  eV     1   --> A'             
     e( 12 - 12) =      2.94388  eV     1   --> A'             
     e( 13 - 13) =      3.24391  eV     1   --> A'             
     e( 14 - 14) =      3.97486  eV     1   --> A'             
     e( 15 - 15) =      4.04680  eV     1   --> A'             
     e( 16 - 16) =      4.36403  eV     1   --> A'             
     e( 17 - 17) =      4.98561  eV     1   --> A'             
     e( 18 - 18) =      5.34412  eV     1   --> A'             
     e( 19 - 19) =      5.53296  eV     1   --> A''            
     e( 20 - 20) =      5.85910  eV     1   --> A'             
     e( 21 - 21) =      6.00017  eV     1   --> A'             
     e( 22 - 22) =      6.91822  eV     1   --> A''            
     e( 23 - 23) =      7.00981  eV     1   --> A'             
     e( 24 - 24) =      7.73087  eV     1   --> A'             
     e( 25 - 25) =      8.23543  eV     1   --> A'             
     e( 26 - 26) =      8.43126  eV     1   --> A''            
     e( 27 - 27) =      9.39106  eV     1   --> A'             
     e( 28 - 28) =     10.30892  eV     1   --> A'             
     e( 29 - 29) =     10.51931  eV     1   --> A'             
     e( 30 - 30) =     10.98305  eV     1   --> A''            

 **************************************************************************

 **************************************************************************

                    xk=(   0.11551,   0.00000,   0.00000  )

     Band symmetry, C_s (m)     point group:

     e(  1 -  1) =    -21.72808  eV     1   --> A'             
     e(  2 -  2) =    -15.96477  eV     1   --> A'             
     e(  3 -  3) =     -8.54523  eV     1   --> A'             
     e(  4 -  4) =     -7.11573  eV     1   --> A'             
     e(  5 -  5) =     -6.82050  eV     1   --> A''            
     e(  6 -  6) =     -6.48722  eV     1   --> A'             
     e(  7 -  7) =     -3.78297  eV     1   --> A'             
     e(  8 -  8) =     -3.01487  eV     1   --> A'             
     e(  9 -  9) =     -2.43464  eV     1   --> A''            
     e( 10 - 10) =     -0.47625  eV     1   --> A'             
     e( 11 - 11) =      1.98751  eV     1   --> A'             
     e( 12 - 12) =      2.89679  eV     1   --> A'             
     e( 13 - 13) =      3.17829  eV     1   --> A'             
     e( 14 - 14) =      3.94298  eV     1   --> A'             
     e( 15 - 15) =      4.06552  eV     1   --> A'             
     e( 16 - 16) =      4.45575  eV     1   --> A'             
     e( 17 - 17) =      4.94546  eV     1   --> A'             
     e( 18 - 18) =      5.34564  eV     1   --> A'             
     e( 19 - 19) =      5.47958  eV     1   --> A''            
     e( 20 - 20) =      5.79013  eV     1   --> A'             
     e( 21 - 21) =      6.03766  eV     1   --> A'             
     e( 22 - 22) =      6.84061  eV     1   --> A''            
     e( 23 - 23) =      7.07377  eV     1   --> A'             
     e( 24 - 24) =      7.81385  eV     1   --> A'             
     e( 25 - 25) =      8.17209  eV     1   --> A'             
     e( 26 - 26) =      8.45215  eV     1   --> A''            
     e( 27 - 27) =      9.47878  eV     1   --> A'             
     e( 28 - 28) =     10.21404  eV     1   --> A'             
     e( 29 - 29) =     10.49144  eV     1   --> A'             
     e( 30 - 30) =     10.95574  eV     1   --> A''            

 **************************************************************************

 **************************************************************************

                    xk=(   0.09625,   0.00000,   0.00000  )

     Band symmetry, C_s (m)     point group:

     e(  1 -  1) =    -21.74261  eV     1   --> A'             
     e(  2 -  2) =    -16.00439  eV     1   --> A'             
     e(  3 -  3) =     -8.57170  eV     1   --> A'             
     e(  4 -  4) =     -7.02173  eV     1   --> A'             
     e(  5 -  5) =     -6.80416  eV     1   --> A''            
     e(  6 -  6) =     -6.51549  eV     1   --> A'             
     e(  7 -  7) =     -3.83406  eV     1   --> A'             
     e(  8 -  8) =     -2.80232  eV     1   --> A'             
     e(  9 -  9) =     -2.37981  eV     1   --> A''            
     e( 10 - 10) =     -0.56756  eV     1   --> A'             
     e( 11 - 11) =      1.93916  eV     1   --> A'             
     e( 12 - 12) =      2.85296  eV     1   --> A'             
     e( 13 - 13) =      3.12239  eV     1   --> A'             
     e( 14 - 14) =      3.89423  eV     1   --> A'             
     e( 15 - 15) =      4.05578  eV     1   --> A'             
     e( 16 - 16) =      4.54896  eV     1   --> A'             
     e( 17 - 17) =      4.89910  eV     1   --> A'             
     e( 18 - 18) =      5.32404  eV     1   --> A'             
     e( 19 - 19) =      5.42073  eV     1   --> A''            
     e( 20 - 20) =      5.73311  eV     1   --> A'             
     e( 21 - 21) =      6.14754  eV     1   --> A'             
     e( 22 - 22) =      6.78002  eV     1   --> A''            
     e( 23 - 23) =      7.11413  eV     1   --> A'             
     e( 24 - 24) =      7.94050  eV     1   --> A'             
     e( 25 - 25) =      8.12053  eV     1   --> A'             
     e( 26 - 26) =      8.48609  eV     1   --> A''            
     e( 27 - 27) =      9.51334  eV     1   --> A'             
     e( 28 - 28) =     10.13346  eV     1   --> A'             
     e( 29 - 29) =     10.48892  eV     1   --> A'             
     e( 30 - 30) =     10.91523  eV     1   --> A''            

 **************************************************************************

 **************************************************************************

                    xk=(   0.07700,   0.00000,   0.00000  )

     Band symmetry, C_s (m)     point group:

     e(  1 -  1) =    -21.75467  eV     1   --> A'             
     e(  2 -  2) =    -16.03698  eV     1   --> A'             
     e(  3 -  3) =     -8.59510  eV     1   --> A'             
     e(  4 -  4) =     -6.93737  eV     1   --> A'             
     e(  5 -  5) =     -6.79047  eV     1   --> A''            
     e(  6 -  6) =     -6.53894  eV     1   --> A'             
     e(  7 -  7) =     -3.88289  eV     1   --> A'             
     e(  8 -  8) =     -2.61253  eV     1   --> A'             
     e(  9 -  9) =     -2.33303  eV     1   --> A''            
     e( 10 - 10) =     -0.64525  eV     1   --> A'             
     e( 11 - 11) =      1.89888  eV     1   --> A'             
     e( 12 - 12) =      2.81501  eV     1   --> A'             
     e( 13 - 13) =      3.07646  eV     1   --> A'             
     e( 14 - 14) =      3.85144  eV     1   --> A'             
     e( 15 - 15) =      4.03125  eV     1   --> A'             
     e( 16 - 16) =      4.54523  eV     1   --> A'             
     e( 17 - 17) =      4.93461  eV     1   --> A'             
     e( 18 - 18) =      5.29702  eV     1   --> A'             
     e( 19 - 19) =      5.36298  eV     1   --> A''            
     e( 20 - 20) =      5.68695  eV     1   --> A'             
     e( 21 - 21) =      6.29100  eV     1   --> A'             
     e( 22 - 22) =      6.73372  eV     1   --> A''            
     e( 23 - 23) =      7.13093  eV     1   --> A'             
     e( 24 - 24) =      8.01599  eV     1   --> A'             
     e( 25 - 25) =      8.15804  eV     1   --> A'             
     e( 26 - 26) =      8.52764  eV     1   --> A''            
     e( 27 - 27) =      9.48179  eV     1   --> A'             
     e( 28 - 28) =     10.07078  eV     1   --> A'             
     e( 29 - 29) =     10.52393  eV     1   --> A'             
     e( 30 - 30) =     10.86545  eV     1   --> A''            

 **************************************************************************

 **************************************************************************

                    xk=(   0.05775,   0.00000,   0.00000  )

     Band symmetry, C_s (m)     point group:

     e(  1 -  1) =    -21.76416  eV     1   --> A'             
     e(  2 -  2) =    -16.06245  eV     1   --> A'             
     e(  3 -  3) =     -8.61424  eV     1   --> A'             
     e(  4 -  4) =     -6.86670  eV     1   --> A'             
     e(  5 -  5) =     -6.77962  eV     1   --> A''            
     e(  6 -  6) =     -6.55741  eV     1   --> A'             
     e(  7 -  7) =     -3.92513  eV     1   --> A'             
     e(  8 -  8) =     -2.45401  eV     1   --> A'             
     e(  9 -  9) =     -2.29538  eV     1   --> A''            
     e( 10 - 10) =     -0.70793  eV     1   --> A'             
     e( 11 - 11) =      1.86709  eV     1   --> A'             
     e( 12 - 12) =      2.78432  eV     1   --> A'             
     e( 13 - 13) =      3.04062  eV     1   --> A'             
     e( 14 - 14) =      3.81716  eV     1   --> A'             
     e( 15 - 15) =      4.00304  eV     1   --> A'             
     e( 16 - 16) =      4.47209  eV     1   --> A'             
     e( 17 - 17) =      5.02995  eV     1   --> A'             
     e( 18 - 18) =      5.27459  eV     1   --> A'             
     e( 19 - 19) =      5.31208  eV     1   --> A''            
     e( 20 - 20) =      5.65035  eV     1   --> A'             
     e( 21 - 21) =      6.43686  eV     1   --> A'             
     e( 22 - 22) =      6.69949  eV     1   --> A''            
     e( 23 - 23) =      7.13414  eV     1   --> A'             
     e( 24 - 24) =      7.98041  eV     1   --> A'             
     e( 25 - 25) =      8.32121  eV     1   --> A'             
     e( 26 - 26) =      8.57045  eV     1   --> A''            
     e( 27 - 27) =      9.40213  eV     1   --> A'             
     e( 28 - 28) =     10.01844  eV     1   --> A'             
     e( 29 - 29) =     10.58970  eV     1   --> A'             
     e( 30 - 30) =     10.81331  eV     1   --> A''            

 **************************************************************************

 **************************************************************************

                    xk=(   0.03850,   0.00000,   0.00000  )

     Band symmetry, C_s (m)     point group:

     e(  1 -  1) =    -21.77099  eV     1   --> A'             
     e(  2 -  2) =    -16.08070  eV     1   --> A'             
     e(  3 -  3) =     -8.62838  eV     1   --> A'             
     e(  4 -  4) =     -6.81320  eV     1   --> A'             
     e(  5 -  5) =     -6.77174  eV     1   --> A''            
     e(  6 -  6) =     -6.57074  eV     1   --> A'             
     e(  7 -  7) =     -3.95772  eV     1   --> A'             
     e(  8 -  8) =     -2.33411  eV     1   --> A'             
     e(  9 -  9) =     -2.26777  eV     1   --> A''            
     e( 10 - 10) =     -0.75421  eV     1   --> A'             
     e( 11 - 11) =      1.84413  eV     1   --> A'             
     e( 12 - 12) =      2.76176  eV     1   --> A'             
     e( 13 - 13) =      3.01496  eV     1   --> A'             
     e( 14 - 14) =      3.79225  eV     1   --> A'             
     e( 15 - 15) =      3.97655  eV     1   --> A'             
     e( 16 - 16) =      4.39931  eV     1   --> A'             
     e( 17 - 17) =      5.11939  eV     1   --> A'             
     e( 18 - 18) =      5.26021  eV     1   --> A'             
     e( 19 - 19) =      5.27257  eV     1   --> A''            
     e( 20 - 20) =      5.62303  eV     1   --> A'             
     e( 21 - 21) =      6.56270  eV     1   --> A'             
     e( 22 - 22) =      6.67585  eV     1   --> A''            
     e( 23 - 23) =      7.13188  eV     1   --> A'             
     e( 24 - 24) =      7.93829  eV     1   --> A'             
     e( 25 - 25) =      8.48494  eV     1   --> A'             
     e( 26 - 26) =      8.60779  eV     1   --> A''            
     e( 27 - 27) =      9.30622  eV     1   --> A'             
     e( 28 - 28) =      9.97252  eV     1   --> A'             
     e( 29 - 29) =     10.66348  eV     1   --> A'             
     e( 30 - 30) =     10.76729  eV     1   --> A''            

 **************************************************************************

 **************************************************************************

                    xk=(   0.01925,   0.00000,   0.00000  )

     Band symmetry, C_s (m)     point group:

     e(  1 -  1) =    -21.77511  eV     1   --> A'             
     e(  2 -  2) =    -16.09167  eV     1   --> A'             
     e(  3 -  3) =     -8.63704  eV     1   --> A'             
     e(  4 -  4) =     -6.77978  eV     1   --> A'             
     e(  5 -  5) =     -6.76698  eV     1   --> A''            
     e(  6 -  6) =     -6.57882  eV     1   --> A'             
     e(  7 -  7) =     -3.97832  eV     1   --> A'             
     e(  8 -  8) =     -2.25915  eV     1   --> A'             
     e(  9 -  9) =     -2.25091  eV     1   --> A''            
     e( 10 - 10) =     -0.78271  eV     1   --> A'             
     e( 11 - 11) =      1.83025  eV     1   --> A'             
     e( 12 - 12) =      2.74797  eV     1   --> A'             
     e( 13 - 13) =      2.99954  eV     1   --> A'             
     e( 14 - 14) =      3.77713  eV     1   --> A'             
     e( 15 - 15) =      3.95706  eV     1   --> A'             
     e( 16 - 16) =      4.35169  eV     1   --> A'             
     e( 17 - 17) =      5.17558  eV     1   --> A'             
     e( 18 - 18) =      5.24763  eV     1   --> A''            
     e( 19 - 19) =      5.25614  eV     1   --> A'             
     e( 20 - 20) =      5.60559  eV     1   --> A'             
     e( 21 - 21) =      6.64918  eV     1   --> A'             
     e( 22 - 22) =      6.66194  eV     1   --> A''            
     e( 23 - 23) =      7.12893  eV     1   --> A'             
     e( 24 - 24) =      7.90703  eV     1   --> A'             
     e( 25 - 25) =      8.61116  eV     1   --> A'             
     e( 26 - 26) =      8.63332  eV     1   --> A''            
     e( 27 - 27) =      9.22385  eV     1   --> A'             
     e( 28 - 28) =      9.93865  eV     1   --> A'             
     e( 29 - 29) =     10.72051  eV     1   --> A'             
     e( 30 - 30) =     10.73562  eV     1   --> A''            

 **************************************************************************

 **************************************************************************

                    xk=(   0.00000,   0.00000,   0.00000  )

     Band symmetry, C_s (m)     point group:

     e(  1 -  1) =    -21.77650  eV     1   --> A'             
     e(  2 -  2) =    -16.09534  eV     1   --> A'             
     e(  3 -  3) =     -8.63996  eV     1   --> A'             
     e(  4 -  4) =     -6.76843  eV     1   --> A'             
     e(  5 -  5) =     -6.76539  eV     1   --> A''            
     e(  6 -  6) =     -6.58153  eV     1   --> A'             
     e(  7 -  7) =     -3.98537  eV     1   --> A'             
     e(  8 -  8) =     -2.24524  eV     1   --> A''            
     e(  9 -  9) =     -2.23362  eV     1   --> A'             
     e( 10 - 10) =     -0.79236  eV     1   --> A'             
     e( 11 - 11) =      1.82561  eV     1   --> A'             
     e( 12 - 12) =      2.74332  eV     1   --> A'             
     e( 13 - 13) =      2.99440  eV     1   --> A'             
     e( 14 - 14) =      3.77206  eV     1   --> A'             
     e( 15 - 15) =      3.94979  eV     1   --> A'             
     e( 16 - 16) =      4.33552  eV     1   --> A'             
     e( 17 - 17) =      5.19223  eV     1   --> A'             
     e( 18 - 18) =      5.23911  eV     1   --> A''            
     e( 19 - 19) =      5.25804  eV     1   --> A'             
     e( 20 - 20) =      5.59948  eV     1   --> A'             
     e( 21 - 21) =      6.65734  eV     1   --> A''            
     e( 22 - 22) =      6.68025  eV     1   --> A'             
     e( 23 - 23) =      7.12770  eV     1   --> A'             
     e( 24 - 24) =      7.89532  eV     1   --> A'             
     e( 25 - 25) =      8.64241  eV     1   --> A''            
     e( 26 - 26) =      8.66168  eV     1   --> A'             
     e( 27 - 27) =      9.18883  eV     1   --> A'             
     e( 28 - 28) =      9.92588  eV     1   --> A'             
     e( 29 - 29) =     10.72433  eV     1   --> A''            
     e( 30 - 30) =     10.74197  eV     1   --> A'             

 **************************************************************************
 
     BANDS        :      7.40s CPU      9.22s WALL

 
   This run was terminated on:   3:36:53  13Jun2023            

=------------------------------------------------------------------------------=
   JOB DONE.
=------------------------------------------------------------------------------=
