
     Program PWSCF v.7.0 starts on 22Jun2023 at 12:52:48 

     This program is part of the open-source Quantum ESPRESSO suite
     for quantum simulation of materials; please cite
         "P. Giannozzi et al., J. Phys.:Condens. Matter 21 395502 (2009);
         "P. Giannozzi et al., J. Phys.:Condens. Matter 29 465901 (2017);
         "P. Giannozzi et al., J. Chem. Phys. 152 154105 (2020);
          URL http://www.quantum-espresso.org", 
     in publications or presentations arising from this work. More details at
     http://www.quantum-espresso.org/quote

     Parallel version (MPI), running on    10 processors

     MPI processes distributed on     1 nodes
     R & G space division:  proc/nbgrp/npool/nimage =      10
     23588 MiB available memory on the printing compute node when the environment starts
 
     Waiting for input...
     Reading input from standard input

     Current dimensions of program PWSCF are:
     Max number of different atomic species (ntypx) = 10
     Max number of k-points (npk) =  40000
     Max angular momentum in pseudopotentials (lmaxx) =  4
     Message from routine volume:
     axis vectors are left-handed

     Atomic positions and unit cell read from directory:
     ./work/Al2S2.save/
     Atomic positions from file used, from input discarded
 
     Message from routine volume:
     axis vectors are left-handed
     file Al.pbe-n-kjpaw_psl.1.0.0.UPF: wavefunction(s)  3S 3P renormalized
     file S.pbe-n-kjpaw_psl.1.0.0.UPF: wavefunction(s)  3S 3P renormalized

     Subspace diagonalization in iterative solution of the eigenvalue problem:
     a serial algorithm will be used

 
     Parallelization info
     --------------------
     sticks:   dense  smooth     PW     G-vecs:    dense   smooth      PW
     Min          75      75     24                11764    11764    2058
     Max          77      77     25                11777    11777    2075
     Sum         757     757    241               117733   117733   20627
 
     Using Slab Decomposition
 


     bravais-lattice index     =            0
     lattice parameter (alat)  =       6.7653  a.u.
     unit-cell volume          =    1874.8147 (a.u.)^3
     number of atoms/cell      =            4
     number of atomic types    =            2
     number of electrons       =        18.00
     number of Kohn-Sham states=           20
     kinetic-energy cutoff     =      60.0000  Ry
     charge density cutoff     =     240.0000  Ry
     Exchange-correlation= SLA  PW   PBX  PBC
                           (   1   4   3   4   0   0   0)

     celldm(1)=   6.765337  celldm(2)=   0.000000  celldm(3)=   0.000000
     celldm(4)=   0.000000  celldm(5)=   0.000000  celldm(6)=   0.000000

     crystal axes: (cart. coord. in units of alat)
               a(1) = (   0.865515   0.500882   0.000000 )  
               a(2) = (   0.865515  -0.500882   0.000000 )  
               a(3) = (   0.000000   0.000000   6.983119 )  

     reciprocal axes: (cart. coord. in units 2 pi/alat)
               b(1) = (  0.577691  0.998238  0.000000 )  
               b(2) = (  0.577691 -0.998238  0.000000 )  
               b(3) = (  0.000000  0.000000  0.143202 )  


     PseudoPot. # 1 for Al read from file:
     /home/mainadmin/research/danu/pseudo/Al.pbe-n-kjpaw_psl.1.0.0.UPF
     MD5 check sum: 502b6b27b9c6270cab5dd1084b96fa6d
     Pseudo is Projector augmented-wave + core cor, Zval =  3.0
     Generated using &quot;atomic&quot; code by A. Dal Corso  v.6.3
     Shape of augmentation charge: PSQ
     Using radial grid of 1135 points,  6 beta functions with: 
                l(1) =   0
                l(2) =   0
                l(3) =   1
                l(4) =   1
                l(5) =   2
                l(6) =   2
     Q(r) pseudized with 0 coefficients 


     PseudoPot. # 2 for S  read from file:
     /home/mainadmin/research/danu/pseudo/S.pbe-n-kjpaw_psl.1.0.0.UPF
     MD5 check sum: fb45dfebcf3e72a4e1bd4a866ec2e262
     Pseudo is Projector augmented-wave + core cor, Zval =  6.0
     Generated using &quot;atomic&quot; code by A. Dal Corso  v.6.3
     Shape of augmentation charge: PSQ
     Using radial grid of 1151 points,  6 beta functions with: 
                l(1) =   0
                l(2) =   0
                l(3) =   1
                l(4) =   1
                l(5) =   2
                l(6) =   2
     Q(r) pseudized with 0 coefficients 


     atomic species   valence    mass     pseudopotential
        Al             3.00    26.98100     Al( 1.00)
        S              6.00    32.06500     S ( 1.00)

     No symmetry found


                                    s                        frac. trans.

      isym =  1     identity                                     

 cryst.   s( 1) = (     1          0          0      )
                  (     0          1          0      )
                  (     0          0          1      )

 cart.    s( 1) = (  1.0000000  0.0000000  0.0000000 )
                  (  0.0000000  1.0000000  0.0000000 )
                  (  0.0000000  0.0000000  1.0000000 )


   Cartesian axes

     site n.     atom                  positions (alat units)
         1           S   tau(   1) = (   1.1540890   0.0000000   2.8398609  )
         2           Al  tau(   2) = (   0.5770117   0.0000000   3.1380690  )
         3           Al  tau(   3) = (   0.5767956   0.0000000   3.8632972  )
         4           S   tau(   4) = (   1.1541649   0.0000000   4.1615395  )

   Crystallographic axes

     site n.     atom                  positions (cryst. coord.)
         1           S   tau(   1) = (  0.6667063  0.6667063  0.4066751  )
         2           Al  tau(   2) = (  0.3333342  0.3333342  0.4493793  )
         3           Al  tau(   3) = (  0.3332094  0.3332094  0.5532338  )
         4           S   tau(   4) = (  0.6667501  0.6667501  0.5959428  )

     number of k points=  1354 (tetrahedron method)
                       cart. coord. in units 2pi/alat
        k(    1) = (   0.0000000   0.0000000   0.0000000), wk =   0.0007396
        k(    2) = (   0.0111094  -0.0191969   0.0000000), wk =   0.0014793
        k(    3) = (   0.0222189  -0.0383938   0.0000000), wk =   0.0014793
        k(    4) = (   0.0333283  -0.0575907   0.0000000), wk =   0.0014793
        k(    5) = (   0.0444377  -0.0767875   0.0000000), wk =   0.0014793
        k(    6) = (   0.0555472  -0.0959844   0.0000000), wk =   0.0014793
        k(    7) = (   0.0666566  -0.1151813   0.0000000), wk =   0.0014793
        k(    8) = (   0.0777660  -0.1343782   0.0000000), wk =   0.0014793
        k(    9) = (   0.0888755  -0.1535751   0.0000000), wk =   0.0014793
        k(   10) = (   0.0999849  -0.1727720   0.0000000), wk =   0.0014793
        k(   11) = (   0.1110943  -0.1919689   0.0000000), wk =   0.0014793
        k(   12) = (   0.1222038  -0.2111658   0.0000000), wk =   0.0014793
        k(   13) = (   0.1333132  -0.2303626   0.0000000), wk =   0.0014793
        k(   14) = (   0.1444226  -0.2495595   0.0000000), wk =   0.0014793
        k(   15) = (   0.1555321  -0.2687564   0.0000000), wk =   0.0014793
        k(   16) = (   0.1666415  -0.2879533   0.0000000), wk =   0.0014793
        k(   17) = (   0.1777509  -0.3071502   0.0000000), wk =   0.0014793
        k(   18) = (   0.1888604  -0.3263471   0.0000000), wk =   0.0014793
        k(   19) = (   0.1999698  -0.3455440   0.0000000), wk =   0.0014793
        k(   20) = (   0.2110792  -0.3647409   0.0000000), wk =   0.0014793
        k(   21) = (   0.2221887  -0.3839377   0.0000000), wk =   0.0014793
        k(   22) = (   0.2332981  -0.4031346   0.0000000), wk =   0.0014793
        k(   23) = (   0.2444075  -0.4223315   0.0000000), wk =   0.0014793
        k(   24) = (   0.2555170  -0.4415284   0.0000000), wk =   0.0014793
        k(   25) = (   0.2666264  -0.4607253   0.0000000), wk =   0.0014793
        k(   26) = (   0.2777358  -0.4799222   0.0000000), wk =   0.0014793
        k(   27) = (  -0.2888453   0.4991191   0.0000000), wk =   0.0007396
        k(   28) = (   0.0111094   0.0191969   0.0000000), wk =   0.0014793
        k(   29) = (   0.0222189   0.0000000   0.0000000), wk =   0.0014793
        k(   30) = (   0.0333283  -0.0191969   0.0000000), wk =   0.0014793
        k(   31) = (   0.0444377  -0.0383938   0.0000000), wk =   0.0014793
        k(   32) = (   0.0555472  -0.0575907   0.0000000), wk =   0.0014793
        k(   33) = (   0.0666566  -0.0767875   0.0000000), wk =   0.0014793
        k(   34) = (   0.0777660  -0.0959844   0.0000000), wk =   0.0014793
        k(   35) = (   0.0888755  -0.1151813   0.0000000), wk =   0.0014793
        k(   36) = (   0.0999849  -0.1343782   0.0000000), wk =   0.0014793
        k(   37) = (   0.1110943  -0.1535751   0.0000000), wk =   0.0014793
        k(   38) = (   0.1222038  -0.1727720   0.0000000), wk =   0.0014793
        k(   39) = (   0.1333132  -0.1919689   0.0000000), wk =   0.0014793
        k(   40) = (   0.1444226  -0.2111658   0.0000000), wk =   0.0014793
        k(   41) = (   0.1555321  -0.2303626   0.0000000), wk =   0.0014793
        k(   42) = (   0.1666415  -0.2495595   0.0000000), wk =   0.0014793
        k(   43) = (   0.1777509  -0.2687564   0.0000000), wk =   0.0014793
        k(   44) = (   0.1888604  -0.2879533   0.0000000), wk =   0.0014793
        k(   45) = (   0.1999698  -0.3071502   0.0000000), wk =   0.0014793
        k(   46) = (   0.2110792  -0.3263471   0.0000000), wk =   0.0014793
        k(   47) = (   0.2221887  -0.3455440   0.0000000), wk =   0.0014793
        k(   48) = (   0.2332981  -0.3647409   0.0000000), wk =   0.0014793
        k(   49) = (   0.2444075  -0.3839377   0.0000000), wk =   0.0014793
        k(   50) = (   0.2555170  -0.4031346   0.0000000), wk =   0.0014793
        k(   51) = (   0.2666264  -0.4223315   0.0000000), wk =   0.0014793
        k(   52) = (   0.2777358  -0.4415284   0.0000000), wk =   0.0014793
        k(   53) = (   0.2888453  -0.4607253   0.0000000), wk =   0.0014793
        k(   54) = (  -0.2777358   0.5183160   0.0000000), wk =   0.0014793
        k(   55) = (  -0.2666264   0.4991191   0.0000000), wk =   0.0014793
        k(   56) = (  -0.2555170   0.4799222   0.0000000), wk =   0.0014793
        k(   57) = (  -0.2444075   0.4607253   0.0000000), wk =   0.0014793
        k(   58) = (  -0.2332981   0.4415284   0.0000000), wk =   0.0014793
        k(   59) = (  -0.2221887   0.4223315   0.0000000), wk =   0.0014793
        k(   60) = (  -0.2110792   0.4031346   0.0000000), wk =   0.0014793
        k(   61) = (  -0.1999698   0.3839377   0.0000000), wk =   0.0014793
        k(   62) = (  -0.1888604   0.3647409   0.0000000), wk =   0.0014793
        k(   63) = (  -0.1777509   0.3455440   0.0000000), wk =   0.0014793
        k(   64) = (  -0.1666415   0.3263471   0.0000000), wk =   0.0014793
        k(   65) = (  -0.1555321   0.3071502   0.0000000), wk =   0.0014793
        k(   66) = (  -0.1444226   0.2879533   0.0000000), wk =   0.0014793
        k(   67) = (  -0.1333132   0.2687564   0.0000000), wk =   0.0014793
        k(   68) = (  -0.1222038   0.2495595   0.0000000), wk =   0.0014793
        k(   69) = (  -0.1110943   0.2303626   0.0000000), wk =   0.0014793
        k(   70) = (  -0.0999849   0.2111658   0.0000000), wk =   0.0014793
        k(   71) = (  -0.0888755   0.1919689   0.0000000), wk =   0.0014793
        k(   72) = (  -0.0777660   0.1727720   0.0000000), wk =   0.0014793
        k(   73) = (  -0.0666566   0.1535751   0.0000000), wk =   0.0014793
        k(   74) = (  -0.0555472   0.1343782   0.0000000), wk =   0.0014793
        k(   75) = (  -0.0444377   0.1151813   0.0000000), wk =   0.0014793
        k(   76) = (  -0.0333283   0.0959844   0.0000000), wk =   0.0014793
        k(   77) = (  -0.0222189   0.0767875   0.0000000), wk =   0.0014793
        k(   78) = (  -0.0111094   0.0575907   0.0000000), wk =   0.0014793
        k(   79) = (  -0.0000000   0.0383938   0.0000000), wk =   0.0014793
        k(   80) = (   0.0222189   0.0383938   0.0000000), wk =   0.0014793
        k(   81) = (   0.0333283   0.0191969   0.0000000), wk =   0.0014793
        k(   82) = (   0.0444377   0.0000000   0.0000000), wk =   0.0014793
        k(   83) = (   0.0555472  -0.0191969   0.0000000), wk =   0.0014793
        k(   84) = (   0.0666566  -0.0383938   0.0000000), wk =   0.0014793
        k(   85) = (   0.0777660  -0.0575907   0.0000000), wk =   0.0014793
        k(   86) = (   0.0888755  -0.0767875   0.0000000), wk =   0.0014793
        k(   87) = (   0.0999849  -0.0959844   0.0000000), wk =   0.0014793
        k(   88) = (   0.1110943  -0.1151813   0.0000000), wk =   0.0014793
        k(   89) = (   0.1222038  -0.1343782   0.0000000), wk =   0.0014793
        k(   90) = (   0.1333132  -0.1535751   0.0000000), wk =   0.0014793
        k(   91) = (   0.1444226  -0.1727720   0.0000000), wk =   0.0014793
        k(   92) = (   0.1555321  -0.1919689   0.0000000), wk =   0.0014793
        k(   93) = (   0.1666415  -0.2111658   0.0000000), wk =   0.0014793
        k(   94) = (   0.1777509  -0.2303626   0.0000000), wk =   0.0014793
        k(   95) = (   0.1888604  -0.2495595   0.0000000), wk =   0.0014793
        k(   96) = (   0.1999698  -0.2687564   0.0000000), wk =   0.0014793
        k(   97) = (   0.2110792  -0.2879533   0.0000000), wk =   0.0014793
        k(   98) = (   0.2221887  -0.3071502   0.0000000), wk =   0.0014793
        k(   99) = (   0.2332981  -0.3263471   0.0000000), wk =   0.0014793
        k(  100) = (   0.2444075  -0.3455440   0.0000000), wk =   0.0014793
        k(  101) = (   0.2555170  -0.3647409   0.0000000), wk =   0.0014793
        k(  102) = (   0.2666264  -0.3839377   0.0000000), wk =   0.0014793
        k(  103) = (   0.2777358  -0.4031346   0.0000000), wk =   0.0014793
        k(  104) = (   0.2888453  -0.4223315   0.0000000), wk =   0.0014793
        k(  105) = (   0.2999547  -0.4415284   0.0000000), wk =   0.0014793
        k(  106) = (  -0.2666264   0.5375128   0.0000000), wk =   0.0014793
        k(  107) = (  -0.2555170   0.5183160   0.0000000), wk =   0.0014793
        k(  108) = (  -0.2444075   0.4991191   0.0000000), wk =   0.0014793
        k(  109) = (  -0.2332981   0.4799222   0.0000000), wk =   0.0014793
        k(  110) = (  -0.2221887   0.4607253   0.0000000), wk =   0.0014793
        k(  111) = (  -0.2110792   0.4415284   0.0000000), wk =   0.0014793
        k(  112) = (  -0.1999698   0.4223315   0.0000000), wk =   0.0014793
        k(  113) = (  -0.1888604   0.4031346   0.0000000), wk =   0.0014793
        k(  114) = (  -0.1777509   0.3839377   0.0000000), wk =   0.0014793
        k(  115) = (  -0.1666415   0.3647409   0.0000000), wk =   0.0014793
        k(  116) = (  -0.1555321   0.3455440   0.0000000), wk =   0.0014793
        k(  117) = (  -0.1444226   0.3263471   0.0000000), wk =   0.0014793
        k(  118) = (  -0.1333132   0.3071502   0.0000000), wk =   0.0014793
        k(  119) = (  -0.1222038   0.2879533   0.0000000), wk =   0.0014793
        k(  120) = (  -0.1110943   0.2687564   0.0000000), wk =   0.0014793
        k(  121) = (  -0.0999849   0.2495595   0.0000000), wk =   0.0014793
        k(  122) = (  -0.0888755   0.2303626   0.0000000), wk =   0.0014793
        k(  123) = (  -0.0777660   0.2111658   0.0000000), wk =   0.0014793
        k(  124) = (  -0.0666566   0.1919689   0.0000000), wk =   0.0014793
        k(  125) = (  -0.0555472   0.1727720   0.0000000), wk =   0.0014793
        k(  126) = (  -0.0444377   0.1535751   0.0000000), wk =   0.0014793
        k(  127) = (  -0.0333283   0.1343782   0.0000000), wk =   0.0014793
        k(  128) = (  -0.0222189   0.1151813   0.0000000), wk =   0.0014793
        k(  129) = (  -0.0111094   0.0959844   0.0000000), wk =   0.0014793
        k(  130) = (   0.0000000   0.0767875   0.0000000), wk =   0.0014793
        k(  131) = (   0.0111094   0.0575907   0.0000000), wk =   0.0014793
        k(  132) = (   0.0333283   0.0575907   0.0000000), wk =   0.0014793
        k(  133) = (   0.0444377   0.0383938   0.0000000), wk =   0.0014793
        k(  134) = (   0.0555472   0.0191969   0.0000000), wk =   0.0014793
        k(  135) = (   0.0666566   0.0000000   0.0000000), wk =   0.0014793
        k(  136) = (   0.0777660  -0.0191969   0.0000000), wk =   0.0014793
        k(  137) = (   0.0888755  -0.0383938   0.0000000), wk =   0.0014793
        k(  138) = (   0.0999849  -0.0575907   0.0000000), wk =   0.0014793
        k(  139) = (   0.1110943  -0.0767875   0.0000000), wk =   0.0014793
        k(  140) = (   0.1222038  -0.0959844   0.0000000), wk =   0.0014793
        k(  141) = (   0.1333132  -0.1151813   0.0000000), wk =   0.0014793
        k(  142) = (   0.1444226  -0.1343782   0.0000000), wk =   0.0014793
        k(  143) = (   0.1555321  -0.1535751   0.0000000), wk =   0.0014793
        k(  144) = (   0.1666415  -0.1727720   0.0000000), wk =   0.0014793
        k(  145) = (   0.1777509  -0.1919689   0.0000000), wk =   0.0014793
        k(  146) = (   0.1888604  -0.2111658   0.0000000), wk =   0.0014793
        k(  147) = (   0.1999698  -0.2303626   0.0000000), wk =   0.0014793
        k(  148) = (   0.2110792  -0.2495595   0.0000000), wk =   0.0014793
        k(  149) = (   0.2221887  -0.2687564   0.0000000), wk =   0.0014793
        k(  150) = (   0.2332981  -0.2879533   0.0000000), wk =   0.0014793
        k(  151) = (   0.2444075  -0.3071502   0.0000000), wk =   0.0014793
        k(  152) = (   0.2555170  -0.3263471   0.0000000), wk =   0.0014793
        k(  153) = (   0.2666264  -0.3455440   0.0000000), wk =   0.0014793
        k(  154) = (   0.2777358  -0.3647409   0.0000000), wk =   0.0014793
        k(  155) = (   0.2888453  -0.3839377   0.0000000), wk =   0.0014793
        k(  156) = (   0.2999547  -0.4031346   0.0000000), wk =   0.0014793
        k(  157) = (   0.3110641  -0.4223315   0.0000000), wk =   0.0014793
        k(  158) = (  -0.2555170   0.5567097   0.0000000), wk =   0.0014793
        k(  159) = (  -0.2444075   0.5375128   0.0000000), wk =   0.0014793
        k(  160) = (  -0.2332981   0.5183160   0.0000000), wk =   0.0014793
        k(  161) = (  -0.2221887   0.4991191   0.0000000), wk =   0.0014793
        k(  162) = (  -0.2110792   0.4799222   0.0000000), wk =   0.0014793
        k(  163) = (  -0.1999698   0.4607253   0.0000000), wk =   0.0014793
        k(  164) = (  -0.1888604   0.4415284   0.0000000), wk =   0.0014793
        k(  165) = (  -0.1777509   0.4223315   0.0000000), wk =   0.0014793
        k(  166) = (  -0.1666415   0.4031346   0.0000000), wk =   0.0014793
        k(  167) = (  -0.1555321   0.3839377   0.0000000), wk =   0.0014793
        k(  168) = (  -0.1444226   0.3647409   0.0000000), wk =   0.0014793
        k(  169) = (  -0.1333132   0.3455440   0.0000000), wk =   0.0014793
        k(  170) = (  -0.1222038   0.3263471   0.0000000), wk =   0.0014793
        k(  171) = (  -0.1110943   0.3071502   0.0000000), wk =   0.0014793
        k(  172) = (  -0.0999849   0.2879533   0.0000000), wk =   0.0014793
        k(  173) = (  -0.0888755   0.2687564   0.0000000), wk =   0.0014793
        k(  174) = (  -0.0777660   0.2495595   0.0000000), wk =   0.0014793
        k(  175) = (  -0.0666566   0.2303626   0.0000000), wk =   0.0014793
        k(  176) = (  -0.0555472   0.2111658   0.0000000), wk =   0.0014793
        k(  177) = (  -0.0444377   0.1919689   0.0000000), wk =   0.0014793
        k(  178) = (  -0.0333283   0.1727720   0.0000000), wk =   0.0014793
        k(  179) = (  -0.0222189   0.1535751   0.0000000), wk =   0.0014793
        k(  180) = (  -0.0111094   0.1343782   0.0000000), wk =   0.0014793
        k(  181) = (  -0.0000000   0.1151813   0.0000000), wk =   0.0014793
        k(  182) = (   0.0111094   0.0959844   0.0000000), wk =   0.0014793
        k(  183) = (   0.0222189   0.0767875   0.0000000), wk =   0.0014793
        k(  184) = (   0.0444377   0.0767875   0.0000000), wk =   0.0014793
        k(  185) = (   0.0555472   0.0575907   0.0000000), wk =   0.0014793
        k(  186) = (   0.0666566   0.0383938   0.0000000), wk =   0.0014793
        k(  187) = (   0.0777660   0.0191969   0.0000000), wk =   0.0014793
        k(  188) = (   0.0888755   0.0000000   0.0000000), wk =   0.0014793
        k(  189) = (   0.0999849  -0.0191969   0.0000000), wk =   0.0014793
        k(  190) = (   0.1110943  -0.0383938   0.0000000), wk =   0.0014793
        k(  191) = (   0.1222038  -0.0575907   0.0000000), wk =   0.0014793
        k(  192) = (   0.1333132  -0.0767875   0.0000000), wk =   0.0014793
        k(  193) = (   0.1444226  -0.0959844   0.0000000), wk =   0.0014793
        k(  194) = (   0.1555321  -0.1151813   0.0000000), wk =   0.0014793
        k(  195) = (   0.1666415  -0.1343782   0.0000000), wk =   0.0014793
        k(  196) = (   0.1777509  -0.1535751   0.0000000), wk =   0.0014793
        k(  197) = (   0.1888604  -0.1727720   0.0000000), wk =   0.0014793
        k(  198) = (   0.1999698  -0.1919689   0.0000000), wk =   0.0014793
        k(  199) = (   0.2110792  -0.2111658   0.0000000), wk =   0.0014793
        k(  200) = (   0.2221887  -0.2303626   0.0000000), wk =   0.0014793
        k(  201) = (   0.2332981  -0.2495595   0.0000000), wk =   0.0014793
        k(  202) = (   0.2444075  -0.2687564   0.0000000), wk =   0.0014793
        k(  203) = (   0.2555170  -0.2879533   0.0000000), wk =   0.0014793
        k(  204) = (   0.2666264  -0.3071502   0.0000000), wk =   0.0014793
        k(  205) = (   0.2777358  -0.3263471   0.0000000), wk =   0.0014793
        k(  206) = (   0.2888453  -0.3455440   0.0000000), wk =   0.0014793
        k(  207) = (   0.2999547  -0.3647409   0.0000000), wk =   0.0014793
        k(  208) = (   0.3110641  -0.3839377   0.0000000), wk =   0.0014793
        k(  209) = (   0.3221736  -0.4031346   0.0000000), wk =   0.0014793
        k(  210) = (  -0.2444075   0.5759066   0.0000000), wk =   0.0014793
        k(  211) = (  -0.2332981   0.5567097   0.0000000), wk =   0.0014793
        k(  212) = (  -0.2221887   0.5375128   0.0000000), wk =   0.0014793
        k(  213) = (  -0.2110792   0.5183160   0.0000000), wk =   0.0014793
        k(  214) = (  -0.1999698   0.4991191   0.0000000), wk =   0.0014793
        k(  215) = (  -0.1888604   0.4799222   0.0000000), wk =   0.0014793
        k(  216) = (  -0.1777509   0.4607253   0.0000000), wk =   0.0014793
        k(  217) = (  -0.1666415   0.4415284   0.0000000), wk =   0.0014793
        k(  218) = (  -0.1555321   0.4223315   0.0000000), wk =   0.0014793
        k(  219) = (  -0.1444226   0.4031346   0.0000000), wk =   0.0014793
        k(  220) = (  -0.1333132   0.3839377   0.0000000), wk =   0.0014793
        k(  221) = (  -0.1222038   0.3647409   0.0000000), wk =   0.0014793
        k(  222) = (  -0.1110943   0.3455440   0.0000000), wk =   0.0014793
        k(  223) = (  -0.0999849   0.3263471   0.0000000), wk =   0.0014793
        k(  224) = (  -0.0888755   0.3071502   0.0000000), wk =   0.0014793
        k(  225) = (  -0.0777660   0.2879533   0.0000000), wk =   0.0014793
        k(  226) = (  -0.0666566   0.2687564   0.0000000), wk =   0.0014793
        k(  227) = (  -0.0555472   0.2495595   0.0000000), wk =   0.0014793
        k(  228) = (  -0.0444377   0.2303626   0.0000000), wk =   0.0014793
        k(  229) = (  -0.0333283   0.2111658   0.0000000), wk =   0.0014793
        k(  230) = (  -0.0222189   0.1919689   0.0000000), wk =   0.0014793
        k(  231) = (  -0.0111094   0.1727720   0.0000000), wk =   0.0014793
        k(  232) = (   0.0000000   0.1535751   0.0000000), wk =   0.0014793
        k(  233) = (   0.0111094   0.1343782   0.0000000), wk =   0.0014793
        k(  234) = (   0.0222189   0.1151813   0.0000000), wk =   0.0014793
        k(  235) = (   0.0333283   0.0959844   0.0000000), wk =   0.0014793
        k(  236) = (   0.0555472   0.0959844   0.0000000), wk =   0.0014793
        k(  237) = (   0.0666566   0.0767875   0.0000000), wk =   0.0014793
        k(  238) = (   0.0777660   0.0575907   0.0000000), wk =   0.0014793
        k(  239) = (   0.0888755   0.0383938   0.0000000), wk =   0.0014793
        k(  240) = (   0.0999849   0.0191969   0.0000000), wk =   0.0014793
        k(  241) = (   0.1110943   0.0000000   0.0000000), wk =   0.0014793
        k(  242) = (   0.1222038  -0.0191969   0.0000000), wk =   0.0014793
        k(  243) = (   0.1333132  -0.0383938   0.0000000), wk =   0.0014793
        k(  244) = (   0.1444226  -0.0575907   0.0000000), wk =   0.0014793
        k(  245) = (   0.1555321  -0.0767875   0.0000000), wk =   0.0014793
        k(  246) = (   0.1666415  -0.0959844   0.0000000), wk =   0.0014793
        k(  247) = (   0.1777509  -0.1151813   0.0000000), wk =   0.0014793
        k(  248) = (   0.1888604  -0.1343782   0.0000000), wk =   0.0014793
        k(  249) = (   0.1999698  -0.1535751   0.0000000), wk =   0.0014793
        k(  250) = (   0.2110792  -0.1727720   0.0000000), wk =   0.0014793
        k(  251) = (   0.2221887  -0.1919689   0.0000000), wk =   0.0014793
        k(  252) = (   0.2332981  -0.2111658   0.0000000), wk =   0.0014793
        k(  253) = (   0.2444075  -0.2303626   0.0000000), wk =   0.0014793
        k(  254) = (   0.2555170  -0.2495595   0.0000000), wk =   0.0014793
        k(  255) = (   0.2666264  -0.2687564   0.0000000), wk =   0.0014793
        k(  256) = (   0.2777358  -0.2879533   0.0000000), wk =   0.0014793
        k(  257) = (   0.2888453  -0.3071502   0.0000000), wk =   0.0014793
        k(  258) = (   0.2999547  -0.3263471   0.0000000), wk =   0.0014793
        k(  259) = (   0.3110641  -0.3455440   0.0000000), wk =   0.0014793
        k(  260) = (   0.3221736  -0.3647409   0.0000000), wk =   0.0014793
        k(  261) = (   0.3332830  -0.3839377   0.0000000), wk =   0.0014793
        k(  262) = (  -0.2332981   0.5951035   0.0000000), wk =   0.0014793
        k(  263) = (  -0.2221887   0.5759066   0.0000000), wk =   0.0014793
        k(  264) = (  -0.2110792   0.5567097   0.0000000), wk =   0.0014793
        k(  265) = (  -0.1999698   0.5375128   0.0000000), wk =   0.0014793
        k(  266) = (  -0.1888604   0.5183160   0.0000000), wk =   0.0014793
        k(  267) = (  -0.1777509   0.4991191   0.0000000), wk =   0.0014793
        k(  268) = (  -0.1666415   0.4799222   0.0000000), wk =   0.0014793
        k(  269) = (  -0.1555321   0.4607253   0.0000000), wk =   0.0014793
        k(  270) = (  -0.1444226   0.4415284   0.0000000), wk =   0.0014793
        k(  271) = (  -0.1333132   0.4223315   0.0000000), wk =   0.0014793
        k(  272) = (  -0.1222038   0.4031346   0.0000000), wk =   0.0014793
        k(  273) = (  -0.1110943   0.3839377   0.0000000), wk =   0.0014793
        k(  274) = (  -0.0999849   0.3647409   0.0000000), wk =   0.0014793
        k(  275) = (  -0.0888755   0.3455440   0.0000000), wk =   0.0014793
        k(  276) = (  -0.0777660   0.3263471   0.0000000), wk =   0.0014793
        k(  277) = (  -0.0666566   0.3071502   0.0000000), wk =   0.0014793
        k(  278) = (  -0.0555472   0.2879533   0.0000000), wk =   0.0014793
        k(  279) = (  -0.0444377   0.2687564   0.0000000), wk =   0.0014793
        k(  280) = (  -0.0333283   0.2495595   0.0000000), wk =   0.0014793
        k(  281) = (  -0.0222189   0.2303626   0.0000000), wk =   0.0014793
        k(  282) = (  -0.0111094   0.2111658   0.0000000), wk =   0.0014793
        k(  283) = (   0.0000000   0.1919689   0.0000000), wk =   0.0014793
        k(  284) = (   0.0111094   0.1727720   0.0000000), wk =   0.0014793
        k(  285) = (   0.0222189   0.1535751   0.0000000), wk =   0.0014793
        k(  286) = (   0.0333283   0.1343782   0.0000000), wk =   0.0014793
        k(  287) = (   0.0444377   0.1151813   0.0000000), wk =   0.0014793
        k(  288) = (   0.0666566   0.1151813   0.0000000), wk =   0.0014793
        k(  289) = (   0.0777660   0.0959844   0.0000000), wk =   0.0014793
        k(  290) = (   0.0888755   0.0767875   0.0000000), wk =   0.0014793
        k(  291) = (   0.0999849   0.0575907   0.0000000), wk =   0.0014793
        k(  292) = (   0.1110943   0.0383938   0.0000000), wk =   0.0014793
        k(  293) = (   0.1222038   0.0191969   0.0000000), wk =   0.0014793
        k(  294) = (   0.1333132   0.0000000   0.0000000), wk =   0.0014793
        k(  295) = (   0.1444226  -0.0191969   0.0000000), wk =   0.0014793
        k(  296) = (   0.1555321  -0.0383938   0.0000000), wk =   0.0014793
        k(  297) = (   0.1666415  -0.0575907   0.0000000), wk =   0.0014793
        k(  298) = (   0.1777509  -0.0767875   0.0000000), wk =   0.0014793
        k(  299) = (   0.1888604  -0.0959844   0.0000000), wk =   0.0014793
        k(  300) = (   0.1999698  -0.1151813   0.0000000), wk =   0.0014793
        k(  301) = (   0.2110792  -0.1343782   0.0000000), wk =   0.0014793
        k(  302) = (   0.2221887  -0.1535751   0.0000000), wk =   0.0014793
        k(  303) = (   0.2332981  -0.1727720   0.0000000), wk =   0.0014793
        k(  304) = (   0.2444075  -0.1919689   0.0000000), wk =   0.0014793
        k(  305) = (   0.2555170  -0.2111658   0.0000000), wk =   0.0014793
        k(  306) = (   0.2666264  -0.2303626   0.0000000), wk =   0.0014793
        k(  307) = (   0.2777358  -0.2495595   0.0000000), wk =   0.0014793
        k(  308) = (   0.2888453  -0.2687564   0.0000000), wk =   0.0014793
        k(  309) = (   0.2999547  -0.2879533   0.0000000), wk =   0.0014793
        k(  310) = (   0.3110641  -0.3071502   0.0000000), wk =   0.0014793
        k(  311) = (   0.3221736  -0.3263471   0.0000000), wk =   0.0014793
        k(  312) = (   0.3332830  -0.3455440   0.0000000), wk =   0.0014793
        k(  313) = (   0.3443924  -0.3647409   0.0000000), wk =   0.0014793
        k(  314) = (  -0.2221887   0.6143004   0.0000000), wk =   0.0014793
        k(  315) = (  -0.2110792   0.5951035   0.0000000), wk =   0.0014793
        k(  316) = (  -0.1999698   0.5759066   0.0000000), wk =   0.0014793
        k(  317) = (  -0.1888604   0.5567097   0.0000000), wk =   0.0014793
        k(  318) = (  -0.1777509   0.5375128   0.0000000), wk =   0.0014793
        k(  319) = (  -0.1666415   0.5183160   0.0000000), wk =   0.0014793
        k(  320) = (  -0.1555321   0.4991191   0.0000000), wk =   0.0014793
        k(  321) = (  -0.1444226   0.4799222   0.0000000), wk =   0.0014793
        k(  322) = (  -0.1333132   0.4607253   0.0000000), wk =   0.0014793
        k(  323) = (  -0.1222038   0.4415284   0.0000000), wk =   0.0014793
        k(  324) = (  -0.1110943   0.4223315   0.0000000), wk =   0.0014793
        k(  325) = (  -0.0999849   0.4031346   0.0000000), wk =   0.0014793
        k(  326) = (  -0.0888755   0.3839377   0.0000000), wk =   0.0014793
        k(  327) = (  -0.0777660   0.3647409   0.0000000), wk =   0.0014793
        k(  328) = (  -0.0666566   0.3455440   0.0000000), wk =   0.0014793
        k(  329) = (  -0.0555472   0.3263471   0.0000000), wk =   0.0014793
        k(  330) = (  -0.0444377   0.3071502   0.0000000), wk =   0.0014793
        k(  331) = (  -0.0333283   0.2879533   0.0000000), wk =   0.0014793
        k(  332) = (  -0.0222189   0.2687564   0.0000000), wk =   0.0014793
        k(  333) = (  -0.0111094   0.2495595   0.0000000), wk =   0.0014793
        k(  334) = (  -0.0000000   0.2303626   0.0000000), wk =   0.0014793
        k(  335) = (   0.0111094   0.2111658   0.0000000), wk =   0.0014793
        k(  336) = (   0.0222189   0.1919689   0.0000000), wk =   0.0014793
        k(  337) = (   0.0333283   0.1727720   0.0000000), wk =   0.0014793
        k(  338) = (   0.0444377   0.1535751   0.0000000), wk =   0.0014793
        k(  339) = (   0.0555472   0.1343782   0.0000000), wk =   0.0014793
        k(  340) = (   0.0777660   0.1343782   0.0000000), wk =   0.0014793
        k(  341) = (   0.0888755   0.1151813   0.0000000), wk =   0.0014793
        k(  342) = (   0.0999849   0.0959844   0.0000000), wk =   0.0014793
        k(  343) = (   0.1110943   0.0767875   0.0000000), wk =   0.0014793
        k(  344) = (   0.1222038   0.0575907   0.0000000), wk =   0.0014793
        k(  345) = (   0.1333132   0.0383938   0.0000000), wk =   0.0014793
        k(  346) = (   0.1444226   0.0191969   0.0000000), wk =   0.0014793
        k(  347) = (   0.1555321   0.0000000   0.0000000), wk =   0.0014793
        k(  348) = (   0.1666415  -0.0191969   0.0000000), wk =   0.0014793
        k(  349) = (   0.1777509  -0.0383938   0.0000000), wk =   0.0014793
        k(  350) = (   0.1888604  -0.0575907   0.0000000), wk =   0.0014793
        k(  351) = (   0.1999698  -0.0767875   0.0000000), wk =   0.0014793
        k(  352) = (   0.2110792  -0.0959844   0.0000000), wk =   0.0014793
        k(  353) = (   0.2221887  -0.1151813   0.0000000), wk =   0.0014793
        k(  354) = (   0.2332981  -0.1343782   0.0000000), wk =   0.0014793
        k(  355) = (   0.2444075  -0.1535751   0.0000000), wk =   0.0014793
        k(  356) = (   0.2555170  -0.1727720   0.0000000), wk =   0.0014793
        k(  357) = (   0.2666264  -0.1919689   0.0000000), wk =   0.0014793
        k(  358) = (   0.2777358  -0.2111658   0.0000000), wk =   0.0014793
        k(  359) = (   0.2888453  -0.2303626   0.0000000), wk =   0.0014793
        k(  360) = (   0.2999547  -0.2495595   0.0000000), wk =   0.0014793
        k(  361) = (   0.3110641  -0.2687564   0.0000000), wk =   0.0014793
        k(  362) = (   0.3221736  -0.2879533   0.0000000), wk =   0.0014793
        k(  363) = (   0.3332830  -0.3071502   0.0000000), wk =   0.0014793
        k(  364) = (   0.3443924  -0.3263471   0.0000000), wk =   0.0014793
        k(  365) = (   0.3555019  -0.3455440   0.0000000), wk =   0.0014793
        k(  366) = (  -0.2110792   0.6334973   0.0000000), wk =   0.0014793
        k(  367) = (  -0.1999698   0.6143004   0.0000000), wk =   0.0014793
        k(  368) = (  -0.1888604   0.5951035   0.0000000), wk =   0.0014793
        k(  369) = (  -0.1777509   0.5759066   0.0000000), wk =   0.0014793
        k(  370) = (  -0.1666415   0.5567097   0.0000000), wk =   0.0014793
        k(  371) = (  -0.1555321   0.5375128   0.0000000), wk =   0.0014793
        k(  372) = (  -0.1444226   0.5183160   0.0000000), wk =   0.0014793
        k(  373) = (  -0.1333132   0.4991191   0.0000000), wk =   0.0014793
        k(  374) = (  -0.1222038   0.4799222   0.0000000), wk =   0.0014793
        k(  375) = (  -0.1110943   0.4607253   0.0000000), wk =   0.0014793
        k(  376) = (  -0.0999849   0.4415284   0.0000000), wk =   0.0014793
        k(  377) = (  -0.0888755   0.4223315   0.0000000), wk =   0.0014793
        k(  378) = (  -0.0777660   0.4031346   0.0000000), wk =   0.0014793
        k(  379) = (  -0.0666566   0.3839377   0.0000000), wk =   0.0014793
        k(  380) = (  -0.0555472   0.3647409   0.0000000), wk =   0.0014793
        k(  381) = (  -0.0444377   0.3455440   0.0000000), wk =   0.0014793
        k(  382) = (  -0.0333283   0.3263471   0.0000000), wk =   0.0014793
        k(  383) = (  -0.0222189   0.3071502   0.0000000), wk =   0.0014793
        k(  384) = (  -0.0111094   0.2879533   0.0000000), wk =   0.0014793
        k(  385) = (   0.0000000   0.2687564   0.0000000), wk =   0.0014793
        k(  386) = (   0.0111094   0.2495595   0.0000000), wk =   0.0014793
        k(  387) = (   0.0222189   0.2303626   0.0000000), wk =   0.0014793
        k(  388) = (   0.0333283   0.2111658   0.0000000), wk =   0.0014793
        k(  389) = (   0.0444377   0.1919689   0.0000000), wk =   0.0014793
        k(  390) = (   0.0555472   0.1727720   0.0000000), wk =   0.0014793
        k(  391) = (   0.0666566   0.1535751   0.0000000), wk =   0.0014793
        k(  392) = (   0.0888755   0.1535751   0.0000000), wk =   0.0014793
        k(  393) = (   0.0999849   0.1343782   0.0000000), wk =   0.0014793
        k(  394) = (   0.1110943   0.1151813   0.0000000), wk =   0.0014793
        k(  395) = (   0.1222038   0.0959844   0.0000000), wk =   0.0014793
        k(  396) = (   0.1333132   0.0767875   0.0000000), wk =   0.0014793
        k(  397) = (   0.1444226   0.0575907   0.0000000), wk =   0.0014793
        k(  398) = (   0.1555321   0.0383938   0.0000000), wk =   0.0014793
        k(  399) = (   0.1666415   0.0191969   0.0000000), wk =   0.0014793
        k(  400) = (   0.1777509   0.0000000   0.0000000), wk =   0.0014793
        k(  401) = (   0.1888604  -0.0191969   0.0000000), wk =   0.0014793
        k(  402) = (   0.1999698  -0.0383938   0.0000000), wk =   0.0014793
        k(  403) = (   0.2110792  -0.0575907   0.0000000), wk =   0.0014793
        k(  404) = (   0.2221887  -0.0767875   0.0000000), wk =   0.0014793
        k(  405) = (   0.2332981  -0.0959844   0.0000000), wk =   0.0014793
        k(  406) = (   0.2444075  -0.1151813   0.0000000), wk =   0.0014793
        k(  407) = (   0.2555170  -0.1343782   0.0000000), wk =   0.0014793
        k(  408) = (   0.2666264  -0.1535751   0.0000000), wk =   0.0014793
        k(  409) = (   0.2777358  -0.1727720   0.0000000), wk =   0.0014793
        k(  410) = (   0.2888453  -0.1919689   0.0000000), wk =   0.0014793
        k(  411) = (   0.2999547  -0.2111658   0.0000000), wk =   0.0014793
        k(  412) = (   0.3110641  -0.2303626   0.0000000), wk =   0.0014793
        k(  413) = (   0.3221736  -0.2495595   0.0000000), wk =   0.0014793
        k(  414) = (   0.3332830  -0.2687564   0.0000000), wk =   0.0014793
        k(  415) = (   0.3443924  -0.2879533   0.0000000), wk =   0.0014793
        k(  416) = (   0.3555019  -0.3071502   0.0000000), wk =   0.0014793
        k(  417) = (   0.3666113  -0.3263471   0.0000000), wk =   0.0014793
        k(  418) = (  -0.1999698   0.6526942   0.0000000), wk =   0.0014793
        k(  419) = (  -0.1888604   0.6334973   0.0000000), wk =   0.0014793
        k(  420) = (  -0.1777509   0.6143004   0.0000000), wk =   0.0014793
        k(  421) = (  -0.1666415   0.5951035   0.0000000), wk =   0.0014793
        k(  422) = (  -0.1555321   0.5759066   0.0000000), wk =   0.0014793
        k(  423) = (  -0.1444226   0.5567097   0.0000000), wk =   0.0014793
        k(  424) = (  -0.1333132   0.5375128   0.0000000), wk =   0.0014793
        k(  425) = (  -0.1222038   0.5183160   0.0000000), wk =   0.0014793
        k(  426) = (  -0.1110943   0.4991191   0.0000000), wk =   0.0014793
        k(  427) = (  -0.0999849   0.4799222   0.0000000), wk =   0.0014793
        k(  428) = (  -0.0888755   0.4607253   0.0000000), wk =   0.0014793
        k(  429) = (  -0.0777660   0.4415284   0.0000000), wk =   0.0014793
        k(  430) = (  -0.0666566   0.4223315   0.0000000), wk =   0.0014793
        k(  431) = (  -0.0555472   0.4031346   0.0000000), wk =   0.0014793
        k(  432) = (  -0.0444377   0.3839377   0.0000000), wk =   0.0014793
        k(  433) = (  -0.0333283   0.3647409   0.0000000), wk =   0.0014793
        k(  434) = (  -0.0222189   0.3455440   0.0000000), wk =   0.0014793
        k(  435) = (  -0.0111094   0.3263471   0.0000000), wk =   0.0014793
        k(  436) = (   0.0000000   0.3071502   0.0000000), wk =   0.0014793
        k(  437) = (   0.0111094   0.2879533   0.0000000), wk =   0.0014793
        k(  438) = (   0.0222189   0.2687564   0.0000000), wk =   0.0014793
        k(  439) = (   0.0333283   0.2495595   0.0000000), wk =   0.0014793
        k(  440) = (   0.0444377   0.2303626   0.0000000), wk =   0.0014793
        k(  441) = (   0.0555472   0.2111658   0.0000000), wk =   0.0014793
        k(  442) = (   0.0666566   0.1919689   0.0000000), wk =   0.0014793
        k(  443) = (   0.0777660   0.1727720   0.0000000), wk =   0.0014793
        k(  444) = (   0.0999849   0.1727720   0.0000000), wk =   0.0014793
        k(  445) = (   0.1110943   0.1535751   0.0000000), wk =   0.0014793
        k(  446) = (   0.1222038   0.1343782   0.0000000), wk =   0.0014793
        k(  447) = (   0.1333132   0.1151813   0.0000000), wk =   0.0014793
        k(  448) = (   0.1444226   0.0959844   0.0000000), wk =   0.0014793
        k(  449) = (   0.1555321   0.0767875   0.0000000), wk =   0.0014793
        k(  450) = (   0.1666415   0.0575907   0.0000000), wk =   0.0014793
        k(  451) = (   0.1777509   0.0383938   0.0000000), wk =   0.0014793
        k(  452) = (   0.1888604   0.0191969   0.0000000), wk =   0.0014793
        k(  453) = (   0.1999698   0.0000000   0.0000000), wk =   0.0014793
        k(  454) = (   0.2110792  -0.0191969   0.0000000), wk =   0.0014793
        k(  455) = (   0.2221887  -0.0383938   0.0000000), wk =   0.0014793
        k(  456) = (   0.2332981  -0.0575907   0.0000000), wk =   0.0014793
        k(  457) = (   0.2444075  -0.0767875   0.0000000), wk =   0.0014793
        k(  458) = (   0.2555170  -0.0959844   0.0000000), wk =   0.0014793
        k(  459) = (   0.2666264  -0.1151813   0.0000000), wk =   0.0014793
        k(  460) = (   0.2777358  -0.1343782   0.0000000), wk =   0.0014793
        k(  461) = (   0.2888453  -0.1535751   0.0000000), wk =   0.0014793
        k(  462) = (   0.2999547  -0.1727720   0.0000000), wk =   0.0014793
        k(  463) = (   0.3110641  -0.1919689   0.0000000), wk =   0.0014793
        k(  464) = (   0.3221736  -0.2111658   0.0000000), wk =   0.0014793
        k(  465) = (   0.3332830  -0.2303626   0.0000000), wk =   0.0014793
        k(  466) = (   0.3443924  -0.2495595   0.0000000), wk =   0.0014793
        k(  467) = (   0.3555019  -0.2687564   0.0000000), wk =   0.0014793
        k(  468) = (   0.3666113  -0.2879533   0.0000000), wk =   0.0014793
        k(  469) = (   0.3777207  -0.3071502   0.0000000), wk =   0.0014793
        k(  470) = (  -0.1888604   0.6718911   0.0000000), wk =   0.0014793
        k(  471) = (  -0.1777509   0.6526942   0.0000000), wk =   0.0014793
        k(  472) = (  -0.1666415   0.6334973   0.0000000), wk =   0.0014793
        k(  473) = (  -0.1555321   0.6143004   0.0000000), wk =   0.0014793
        k(  474) = (  -0.1444226   0.5951035   0.0000000), wk =   0.0014793
        k(  475) = (  -0.1333132   0.5759066   0.0000000), wk =   0.0014793
        k(  476) = (  -0.1222038   0.5567097   0.0000000), wk =   0.0014793
        k(  477) = (  -0.1110943   0.5375128   0.0000000), wk =   0.0014793
        k(  478) = (  -0.0999849   0.5183160   0.0000000), wk =   0.0014793
        k(  479) = (  -0.0888755   0.4991191   0.0000000), wk =   0.0014793
        k(  480) = (  -0.0777660   0.4799222   0.0000000), wk =   0.0014793
        k(  481) = (  -0.0666566   0.4607253   0.0000000), wk =   0.0014793
        k(  482) = (  -0.0555472   0.4415284   0.0000000), wk =   0.0014793
        k(  483) = (  -0.0444377   0.4223315   0.0000000), wk =   0.0014793
        k(  484) = (  -0.0333283   0.4031346   0.0000000), wk =   0.0014793
        k(  485) = (  -0.0222189   0.3839377   0.0000000), wk =   0.0014793
        k(  486) = (  -0.0111094   0.3647409   0.0000000), wk =   0.0014793
        k(  487) = (  -0.0000000   0.3455440   0.0000000), wk =   0.0014793
        k(  488) = (   0.0111094   0.3263471   0.0000000), wk =   0.0014793
        k(  489) = (   0.0222189   0.3071502   0.0000000), wk =   0.0014793
        k(  490) = (   0.0333283   0.2879533   0.0000000), wk =   0.0014793
        k(  491) = (   0.0444377   0.2687564   0.0000000), wk =   0.0014793
        k(  492) = (   0.0555472   0.2495595   0.0000000), wk =   0.0014793
        k(  493) = (   0.0666566   0.2303626   0.0000000), wk =   0.0014793
        k(  494) = (   0.0777660   0.2111658   0.0000000), wk =   0.0014793
        k(  495) = (   0.0888755   0.1919689   0.0000000), wk =   0.0014793
        k(  496) = (   0.1110943   0.1919689   0.0000000), wk =   0.0014793
        k(  497) = (   0.1222038   0.1727720   0.0000000), wk =   0.0014793
        k(  498) = (   0.1333132   0.1535751   0.0000000), wk =   0.0014793
        k(  499) = (   0.1444226   0.1343782   0.0000000), wk =   0.0014793
        k(  500) = (   0.1555321   0.1151813   0.0000000), wk =   0.0014793
        k(  501) = (   0.1666415   0.0959844   0.0000000), wk =   0.0014793
        k(  502) = (   0.1777509   0.0767875   0.0000000), wk =   0.0014793
        k(  503) = (   0.1888604   0.0575907   0.0000000), wk =   0.0014793
        k(  504) = (   0.1999698   0.0383938   0.0000000), wk =   0.0014793
        k(  505) = (   0.2110792   0.0191969   0.0000000), wk =   0.0014793
        k(  506) = (   0.2221887   0.0000000   0.0000000), wk =   0.0014793
        k(  507) = (   0.2332981  -0.0191969   0.0000000), wk =   0.0014793
        k(  508) = (   0.2444075  -0.0383938   0.0000000), wk =   0.0014793
        k(  509) = (   0.2555170  -0.0575907   0.0000000), wk =   0.0014793
        k(  510) = (   0.2666264  -0.0767875   0.0000000), wk =   0.0014793
        k(  511) = (   0.2777358  -0.0959844   0.0000000), wk =   0.0014793
        k(  512) = (   0.2888453  -0.1151813   0.0000000), wk =   0.0014793
        k(  513) = (   0.2999547  -0.1343782   0.0000000), wk =   0.0014793
        k(  514) = (   0.3110641  -0.1535751   0.0000000), wk =   0.0014793
        k(  515) = (   0.3221736  -0.1727720   0.0000000), wk =   0.0014793
        k(  516) = (   0.3332830  -0.1919689   0.0000000), wk =   0.0014793
        k(  517) = (   0.3443924  -0.2111658   0.0000000), wk =   0.0014793
        k(  518) = (   0.3555019  -0.2303626   0.0000000), wk =   0.0014793
        k(  519) = (   0.3666113  -0.2495595   0.0000000), wk =   0.0014793
        k(  520) = (   0.3777207  -0.2687564   0.0000000), wk =   0.0014793
        k(  521) = (   0.3888302  -0.2879533   0.0000000), wk =   0.0014793
        k(  522) = (  -0.1777509   0.6910879   0.0000000), wk =   0.0014793
        k(  523) = (  -0.1666415   0.6718911   0.0000000), wk =   0.0014793
        k(  524) = (  -0.1555321   0.6526942   0.0000000), wk =   0.0014793
        k(  525) = (  -0.1444226   0.6334973   0.0000000), wk =   0.0014793
        k(  526) = (  -0.1333132   0.6143004   0.0000000), wk =   0.0014793
        k(  527) = (  -0.1222038   0.5951035   0.0000000), wk =   0.0014793
        k(  528) = (  -0.1110943   0.5759066   0.0000000), wk =   0.0014793
        k(  529) = (  -0.0999849   0.5567097   0.0000000), wk =   0.0014793
        k(  530) = (  -0.0888755   0.5375128   0.0000000), wk =   0.0014793
        k(  531) = (  -0.0777660   0.5183160   0.0000000), wk =   0.0014793
        k(  532) = (  -0.0666566   0.4991191   0.0000000), wk =   0.0014793
        k(  533) = (  -0.0555472   0.4799222   0.0000000), wk =   0.0014793
        k(  534) = (  -0.0444377   0.4607253   0.0000000), wk =   0.0014793
        k(  535) = (  -0.0333283   0.4415284   0.0000000), wk =   0.0014793
        k(  536) = (  -0.0222189   0.4223315   0.0000000), wk =   0.0014793
        k(  537) = (  -0.0111094   0.4031346   0.0000000), wk =   0.0014793
        k(  538) = (   0.0000000   0.3839377   0.0000000), wk =   0.0014793
        k(  539) = (   0.0111094   0.3647409   0.0000000), wk =   0.0014793
        k(  540) = (   0.0222189   0.3455440   0.0000000), wk =   0.0014793
        k(  541) = (   0.0333283   0.3263471   0.0000000), wk =   0.0014793
        k(  542) = (   0.0444377   0.3071502   0.0000000), wk =   0.0014793
        k(  543) = (   0.0555472   0.2879533   0.0000000), wk =   0.0014793
        k(  544) = (   0.0666566   0.2687564   0.0000000), wk =   0.0014793
        k(  545) = (   0.0777660   0.2495595   0.0000000), wk =   0.0014793
        k(  546) = (   0.0888755   0.2303626   0.0000000), wk =   0.0014793
        k(  547) = (   0.0999849   0.2111658   0.0000000), wk =   0.0014793
        k(  548) = (   0.1222038   0.2111658   0.0000000), wk =   0.0014793
        k(  549) = (   0.1333132   0.1919689   0.0000000), wk =   0.0014793
        k(  550) = (   0.1444226   0.1727720   0.0000000), wk =   0.0014793
        k(  551) = (   0.1555321   0.1535751   0.0000000), wk =   0.0014793
        k(  552) = (   0.1666415   0.1343782   0.0000000), wk =   0.0014793
        k(  553) = (   0.1777509   0.1151813   0.0000000), wk =   0.0014793
        k(  554) = (   0.1888604   0.0959844   0.0000000), wk =   0.0014793
        k(  555) = (   0.1999698   0.0767875   0.0000000), wk =   0.0014793
        k(  556) = (   0.2110792   0.0575907   0.0000000), wk =   0.0014793
        k(  557) = (   0.2221887   0.0383938   0.0000000), wk =   0.0014793
        k(  558) = (   0.2332981   0.0191969   0.0000000), wk =   0.0014793
        k(  559) = (   0.2444075   0.0000000   0.0000000), wk =   0.0014793
        k(  560) = (   0.2555170  -0.0191969   0.0000000), wk =   0.0014793
        k(  561) = (   0.2666264  -0.0383938   0.0000000), wk =   0.0014793
        k(  562) = (   0.2777358  -0.0575907   0.0000000), wk =   0.0014793
        k(  563) = (   0.2888453  -0.0767875   0.0000000), wk =   0.0014793
        k(  564) = (   0.2999547  -0.0959844   0.0000000), wk =   0.0014793
        k(  565) = (   0.3110641  -0.1151813   0.0000000), wk =   0.0014793
        k(  566) = (   0.3221736  -0.1343782   0.0000000), wk =   0.0014793
        k(  567) = (   0.3332830  -0.1535751   0.0000000), wk =   0.0014793
        k(  568) = (   0.3443924  -0.1727720   0.0000000), wk =   0.0014793
        k(  569) = (   0.3555019  -0.1919689   0.0000000), wk =   0.0014793
        k(  570) = (   0.3666113  -0.2111658   0.0000000), wk =   0.0014793
        k(  571) = (   0.3777207  -0.2303626   0.0000000), wk =   0.0014793
        k(  572) = (   0.3888302  -0.2495595   0.0000000), wk =   0.0014793
        k(  573) = (   0.3999396  -0.2687564   0.0000000), wk =   0.0014793
        k(  574) = (  -0.1666415   0.7102848   0.0000000), wk =   0.0014793
        k(  575) = (  -0.1555321   0.6910879   0.0000000), wk =   0.0014793
        k(  576) = (  -0.1444226   0.6718911   0.0000000), wk =   0.0014793
        k(  577) = (  -0.1333132   0.6526942   0.0000000), wk =   0.0014793
        k(  578) = (  -0.1222038   0.6334973   0.0000000), wk =   0.0014793
        k(  579) = (  -0.1110943   0.6143004   0.0000000), wk =   0.0014793
        k(  580) = (  -0.0999849   0.5951035   0.0000000), wk =   0.0014793
        k(  581) = (  -0.0888755   0.5759066   0.0000000), wk =   0.0014793
        k(  582) = (  -0.0777660   0.5567097   0.0000000), wk =   0.0014793
        k(  583) = (  -0.0666566   0.5375128   0.0000000), wk =   0.0014793
        k(  584) = (  -0.0555472   0.5183160   0.0000000), wk =   0.0014793
        k(  585) = (  -0.0444377   0.4991191   0.0000000), wk =   0.0014793
        k(  586) = (  -0.0333283   0.4799222   0.0000000), wk =   0.0014793
        k(  587) = (  -0.0222189   0.4607253   0.0000000), wk =   0.0014793
        k(  588) = (  -0.0111094   0.4415284   0.0000000), wk =   0.0014793
        k(  589) = (  -0.0000000   0.4223315   0.0000000), wk =   0.0014793
        k(  590) = (   0.0111094   0.4031346   0.0000000), wk =   0.0014793
        k(  591) = (   0.0222189   0.3839377   0.0000000), wk =   0.0014793
        k(  592) = (   0.0333283   0.3647409   0.0000000), wk =   0.0014793
        k(  593) = (   0.0444377   0.3455440   0.0000000), wk =   0.0014793
        k(  594) = (   0.0555472   0.3263471   0.0000000), wk =   0.0014793
        k(  595) = (   0.0666566   0.3071502   0.0000000), wk =   0.0014793
        k(  596) = (   0.0777660   0.2879533   0.0000000), wk =   0.0014793
        k(  597) = (   0.0888755   0.2687564   0.0000000), wk =   0.0014793
        k(  598) = (   0.0999849   0.2495595   0.0000000), wk =   0.0014793
        k(  599) = (   0.1110943   0.2303626   0.0000000), wk =   0.0014793
        k(  600) = (   0.1333132   0.2303626   0.0000000), wk =   0.0014793
        k(  601) = (   0.1444226   0.2111658   0.0000000), wk =   0.0014793
        k(  602) = (   0.1555321   0.1919689   0.0000000), wk =   0.0014793
        k(  603) = (   0.1666415   0.1727720   0.0000000), wk =   0.0014793
        k(  604) = (   0.1777509   0.1535751   0.0000000), wk =   0.0014793
        k(  605) = (   0.1888604   0.1343782   0.0000000), wk =   0.0014793
        k(  606) = (   0.1999698   0.1151813   0.0000000), wk =   0.0014793
        k(  607) = (   0.2110792   0.0959844   0.0000000), wk =   0.0014793
        k(  608) = (   0.2221887   0.0767875   0.0000000), wk =   0.0014793
        k(  609) = (   0.2332981   0.0575907   0.0000000), wk =   0.0014793
        k(  610) = (   0.2444075   0.0383938   0.0000000), wk =   0.0014793
        k(  611) = (   0.2555170   0.0191969   0.0000000), wk =   0.0014793
        k(  612) = (   0.2666264   0.0000000   0.0000000), wk =   0.0014793
        k(  613) = (   0.2777358  -0.0191969   0.0000000), wk =   0.0014793
        k(  614) = (   0.2888453  -0.0383938   0.0000000), wk =   0.0014793
        k(  615) = (   0.2999547  -0.0575907   0.0000000), wk =   0.0014793
        k(  616) = (   0.3110641  -0.0767875   0.0000000), wk =   0.0014793
        k(  617) = (   0.3221736  -0.0959844   0.0000000), wk =   0.0014793
        k(  618) = (   0.3332830  -0.1151813   0.0000000), wk =   0.0014793
        k(  619) = (   0.3443924  -0.1343782   0.0000000), wk =   0.0014793
        k(  620) = (   0.3555019  -0.1535751   0.0000000), wk =   0.0014793
        k(  621) = (   0.3666113  -0.1727720   0.0000000), wk =   0.0014793
        k(  622) = (   0.3777207  -0.1919689   0.0000000), wk =   0.0014793
        k(  623) = (   0.3888302  -0.2111658   0.0000000), wk =   0.0014793
        k(  624) = (   0.3999396  -0.2303626   0.0000000), wk =   0.0014793
        k(  625) = (   0.4110490  -0.2495595   0.0000000), wk =   0.0014793
        k(  626) = (  -0.1555321   0.7294817   0.0000000), wk =   0.0014793
        k(  627) = (  -0.1444226   0.7102848   0.0000000), wk =   0.0014793
        k(  628) = (  -0.1333132   0.6910879   0.0000000), wk =   0.0014793
        k(  629) = (  -0.1222038   0.6718911   0.0000000), wk =   0.0014793
        k(  630) = (  -0.1110943   0.6526942   0.0000000), wk =   0.0014793
        k(  631) = (  -0.0999849   0.6334973   0.0000000), wk =   0.0014793
        k(  632) = (  -0.0888755   0.6143004   0.0000000), wk =   0.0014793
        k(  633) = (  -0.0777660   0.5951035   0.0000000), wk =   0.0014793
        k(  634) = (  -0.0666566   0.5759066   0.0000000), wk =   0.0014793
        k(  635) = (  -0.0555472   0.5567097   0.0000000), wk =   0.0014793
        k(  636) = (  -0.0444377   0.5375128   0.0000000), wk =   0.0014793
        k(  637) = (  -0.0333283   0.5183160   0.0000000), wk =   0.0014793
        k(  638) = (  -0.0222189   0.4991191   0.0000000), wk =   0.0014793
        k(  639) = (  -0.0111094   0.4799222   0.0000000), wk =   0.0014793
        k(  640) = (   0.0000000   0.4607253   0.0000000), wk =   0.0014793
        k(  641) = (   0.0111094   0.4415284   0.0000000), wk =   0.0014793
        k(  642) = (   0.0222189   0.4223315   0.0000000), wk =   0.0014793
        k(  643) = (   0.0333283   0.4031346   0.0000000), wk =   0.0014793
        k(  644) = (   0.0444377   0.3839377   0.0000000), wk =   0.0014793
        k(  645) = (   0.0555472   0.3647409   0.0000000), wk =   0.0014793
        k(  646) = (   0.0666566   0.3455440   0.0000000), wk =   0.0014793
        k(  647) = (   0.0777660   0.3263471   0.0000000), wk =   0.0014793
        k(  648) = (   0.0888755   0.3071502   0.0000000), wk =   0.0014793
        k(  649) = (   0.0999849   0.2879533   0.0000000), wk =   0.0014793
        k(  650) = (   0.1110943   0.2687564   0.0000000), wk =   0.0014793
        k(  651) = (   0.1222038   0.2495595   0.0000000), wk =   0.0014793
        k(  652) = (   0.1444226   0.2495595   0.0000000), wk =   0.0014793
        k(  653) = (   0.1555321   0.2303626   0.0000000), wk =   0.0014793
        k(  654) = (   0.1666415   0.2111658   0.0000000), wk =   0.0014793
        k(  655) = (   0.1777509   0.1919689   0.0000000), wk =   0.0014793
        k(  656) = (   0.1888604   0.1727720   0.0000000), wk =   0.0014793
        k(  657) = (   0.1999698   0.1535751   0.0000000), wk =   0.0014793
        k(  658) = (   0.2110792   0.1343782   0.0000000), wk =   0.0014793
        k(  659) = (   0.2221887   0.1151813   0.0000000), wk =   0.0014793
        k(  660) = (   0.2332981   0.0959844   0.0000000), wk =   0.0014793
        k(  661) = (   0.2444075   0.0767875   0.0000000), wk =   0.0014793
        k(  662) = (   0.2555170   0.0575907   0.0000000), wk =   0.0014793
        k(  663) = (   0.2666264   0.0383938   0.0000000), wk =   0.0014793
        k(  664) = (   0.2777358   0.0191969   0.0000000), wk =   0.0014793
        k(  665) = (   0.2888453   0.0000000   0.0000000), wk =   0.0014793
        k(  666) = (   0.2999547  -0.0191969   0.0000000), wk =   0.0014793
        k(  667) = (   0.3110641  -0.0383938   0.0000000), wk =   0.0014793
        k(  668) = (   0.3221736  -0.0575907   0.0000000), wk =   0.0014793
        k(  669) = (   0.3332830  -0.0767875   0.0000000), wk =   0.0014793
        k(  670) = (   0.3443924  -0.0959844   0.0000000), wk =   0.0014793
        k(  671) = (   0.3555019  -0.1151813   0.0000000), wk =   0.0014793
        k(  672) = (   0.3666113  -0.1343782   0.0000000), wk =   0.0014793
        k(  673) = (   0.3777207  -0.1535751   0.0000000), wk =   0.0014793
        k(  674) = (   0.3888302  -0.1727720   0.0000000), wk =   0.0014793
        k(  675) = (   0.3999396  -0.1919689   0.0000000), wk =   0.0014793
        k(  676) = (   0.4110490  -0.2111658   0.0000000), wk =   0.0014793
        k(  677) = (   0.4221585  -0.2303626   0.0000000), wk =   0.0014793
        k(  678) = (  -0.1444226   0.7486786   0.0000000), wk =   0.0014793
        k(  679) = (  -0.1333132   0.7294817   0.0000000), wk =   0.0014793
        k(  680) = (  -0.1222038   0.7102848   0.0000000), wk =   0.0014793
        k(  681) = (  -0.1110943   0.6910879   0.0000000), wk =   0.0014793
        k(  682) = (  -0.0999849   0.6718911   0.0000000), wk =   0.0014793
        k(  683) = (  -0.0888755   0.6526942   0.0000000), wk =   0.0014793
        k(  684) = (  -0.0777660   0.6334973   0.0000000), wk =   0.0014793
        k(  685) = (  -0.0666566   0.6143004   0.0000000), wk =   0.0014793
        k(  686) = (  -0.0555472   0.5951035   0.0000000), wk =   0.0014793
        k(  687) = (  -0.0444377   0.5759066   0.0000000), wk =   0.0014793
        k(  688) = (  -0.0333283   0.5567097   0.0000000), wk =   0.0014793
        k(  689) = (  -0.0222189   0.5375128   0.0000000), wk =   0.0014793
        k(  690) = (  -0.0111094   0.5183160   0.0000000), wk =   0.0014793
        k(  691) = (   0.0000000   0.4991191   0.0000000), wk =   0.0014793
        k(  692) = (   0.0111094   0.4799222   0.0000000), wk =   0.0014793
        k(  693) = (   0.0222189   0.4607253   0.0000000), wk =   0.0014793
        k(  694) = (   0.0333283   0.4415284   0.0000000), wk =   0.0014793
        k(  695) = (   0.0444377   0.4223315   0.0000000), wk =   0.0014793
        k(  696) = (   0.0555472   0.4031346   0.0000000), wk =   0.0014793
        k(  697) = (   0.0666566   0.3839377   0.0000000), wk =   0.0014793
        k(  698) = (   0.0777660   0.3647409   0.0000000), wk =   0.0014793
        k(  699) = (   0.0888755   0.3455440   0.0000000), wk =   0.0014793
        k(  700) = (   0.0999849   0.3263471   0.0000000), wk =   0.0014793
        k(  701) = (   0.1110943   0.3071502   0.0000000), wk =   0.0014793
        k(  702) = (   0.1222038   0.2879533   0.0000000), wk =   0.0014793
        k(  703) = (   0.1333132   0.2687564   0.0000000), wk =   0.0014793
        k(  704) = (   0.1555321   0.2687564   0.0000000), wk =   0.0014793
        k(  705) = (   0.1666415   0.2495595   0.0000000), wk =   0.0014793
        k(  706) = (   0.1777509   0.2303626   0.0000000), wk =   0.0014793
        k(  707) = (   0.1888604   0.2111658   0.0000000), wk =   0.0014793
        k(  708) = (   0.1999698   0.1919689   0.0000000), wk =   0.0014793
        k(  709) = (   0.2110792   0.1727720   0.0000000), wk =   0.0014793
        k(  710) = (   0.2221887   0.1535751   0.0000000), wk =   0.0014793
        k(  711) = (   0.2332981   0.1343782   0.0000000), wk =   0.0014793
        k(  712) = (   0.2444075   0.1151813   0.0000000), wk =   0.0014793
        k(  713) = (   0.2555170   0.0959844   0.0000000), wk =   0.0014793
        k(  714) = (   0.2666264   0.0767875   0.0000000), wk =   0.0014793
        k(  715) = (   0.2777358   0.0575907   0.0000000), wk =   0.0014793
        k(  716) = (   0.2888453   0.0383938   0.0000000), wk =   0.0014793
        k(  717) = (   0.2999547   0.0191969   0.0000000), wk =   0.0014793
        k(  718) = (   0.3110641   0.0000000   0.0000000), wk =   0.0014793
        k(  719) = (   0.3221736  -0.0191969   0.0000000), wk =   0.0014793
        k(  720) = (   0.3332830  -0.0383938   0.0000000), wk =   0.0014793
        k(  721) = (   0.3443924  -0.0575907   0.0000000), wk =   0.0014793
        k(  722) = (   0.3555019  -0.0767875   0.0000000), wk =   0.0014793
        k(  723) = (   0.3666113  -0.0959844   0.0000000), wk =   0.0014793
        k(  724) = (   0.3777207  -0.1151813   0.0000000), wk =   0.0014793
        k(  725) = (   0.3888302  -0.1343782   0.0000000), wk =   0.0014793
        k(  726) = (   0.3999396  -0.1535751   0.0000000), wk =   0.0014793
        k(  727) = (   0.4110490  -0.1727720   0.0000000), wk =   0.0014793
        k(  728) = (   0.4221585  -0.1919689   0.0000000), wk =   0.0014793
        k(  729) = (   0.4332679  -0.2111658   0.0000000), wk =   0.0014793
        k(  730) = (  -0.1333132   0.7678755   0.0000000), wk =   0.0014793
        k(  731) = (  -0.1222038   0.7486786   0.0000000), wk =   0.0014793
        k(  732) = (  -0.1110943   0.7294817   0.0000000), wk =   0.0014793
        k(  733) = (  -0.0999849   0.7102848   0.0000000), wk =   0.0014793
        k(  734) = (  -0.0888755   0.6910879   0.0000000), wk =   0.0014793
        k(  735) = (  -0.0777660   0.6718911   0.0000000), wk =   0.0014793
        k(  736) = (  -0.0666566   0.6526942   0.0000000), wk =   0.0014793
        k(  737) = (  -0.0555472   0.6334973   0.0000000), wk =   0.0014793
        k(  738) = (  -0.0444377   0.6143004   0.0000000), wk =   0.0014793
        k(  739) = (  -0.0333283   0.5951035   0.0000000), wk =   0.0014793
        k(  740) = (  -0.0222189   0.5759066   0.0000000), wk =   0.0014793
        k(  741) = (  -0.0111094   0.5567097   0.0000000), wk =   0.0014793
        k(  742) = (  -0.0000000   0.5375128   0.0000000), wk =   0.0014793
        k(  743) = (   0.0111094   0.5183160   0.0000000), wk =   0.0014793
        k(  744) = (   0.0222189   0.4991191   0.0000000), wk =   0.0014793
        k(  745) = (   0.0333283   0.4799222   0.0000000), wk =   0.0014793
        k(  746) = (   0.0444377   0.4607253   0.0000000), wk =   0.0014793
        k(  747) = (   0.0555472   0.4415284   0.0000000), wk =   0.0014793
        k(  748) = (   0.0666566   0.4223315   0.0000000), wk =   0.0014793
        k(  749) = (   0.0777660   0.4031346   0.0000000), wk =   0.0014793
        k(  750) = (   0.0888755   0.3839377   0.0000000), wk =   0.0014793
        k(  751) = (   0.0999849   0.3647409   0.0000000), wk =   0.0014793
        k(  752) = (   0.1110943   0.3455440   0.0000000), wk =   0.0014793
        k(  753) = (   0.1222038   0.3263471   0.0000000), wk =   0.0014793
        k(  754) = (   0.1333132   0.3071502   0.0000000), wk =   0.0014793
        k(  755) = (   0.1444226   0.2879533   0.0000000), wk =   0.0014793
        k(  756) = (   0.1666415   0.2879533   0.0000000), wk =   0.0014793
        k(  757) = (   0.1777509   0.2687564   0.0000000), wk =   0.0014793
        k(  758) = (   0.1888604   0.2495595   0.0000000), wk =   0.0014793
        k(  759) = (   0.1999698   0.2303626   0.0000000), wk =   0.0014793
        k(  760) = (   0.2110792   0.2111658   0.0000000), wk =   0.0014793
        k(  761) = (   0.2221887   0.1919689   0.0000000), wk =   0.0014793
        k(  762) = (   0.2332981   0.1727720   0.0000000), wk =   0.0014793
        k(  763) = (   0.2444075   0.1535751   0.0000000), wk =   0.0014793
        k(  764) = (   0.2555170   0.1343782   0.0000000), wk =   0.0014793
        k(  765) = (   0.2666264   0.1151813   0.0000000), wk =   0.0014793
        k(  766) = (   0.2777358   0.0959844   0.0000000), wk =   0.0014793
        k(  767) = (   0.2888453   0.0767875   0.0000000), wk =   0.0014793
        k(  768) = (   0.2999547   0.0575907   0.0000000), wk =   0.0014793
        k(  769) = (   0.3110641   0.0383938   0.0000000), wk =   0.0014793
        k(  770) = (   0.3221736   0.0191969   0.0000000), wk =   0.0014793
        k(  771) = (   0.3332830   0.0000000   0.0000000), wk =   0.0014793
        k(  772) = (   0.3443924  -0.0191969   0.0000000), wk =   0.0014793
        k(  773) = (   0.3555019  -0.0383938   0.0000000), wk =   0.0014793
        k(  774) = (   0.3666113  -0.0575907   0.0000000), wk =   0.0014793
        k(  775) = (   0.3777207  -0.0767875   0.0000000), wk =   0.0014793
        k(  776) = (   0.3888302  -0.0959844   0.0000000), wk =   0.0014793
        k(  777) = (   0.3999396  -0.1151813   0.0000000), wk =   0.0014793
        k(  778) = (   0.4110490  -0.1343782   0.0000000), wk =   0.0014793
        k(  779) = (   0.4221585  -0.1535751   0.0000000), wk =   0.0014793
        k(  780) = (   0.4332679  -0.1727720   0.0000000), wk =   0.0014793
        k(  781) = (   0.4443773  -0.1919689   0.0000000), wk =   0.0014793
        k(  782) = (  -0.1222038   0.7870724   0.0000000), wk =   0.0014793
        k(  783) = (  -0.1110943   0.7678755   0.0000000), wk =   0.0014793
        k(  784) = (  -0.0999849   0.7486786   0.0000000), wk =   0.0014793
        k(  785) = (  -0.0888755   0.7294817   0.0000000), wk =   0.0014793
        k(  786) = (  -0.0777660   0.7102848   0.0000000), wk =   0.0014793
        k(  787) = (  -0.0666566   0.6910879   0.0000000), wk =   0.0014793
        k(  788) = (  -0.0555472   0.6718911   0.0000000), wk =   0.0014793
        k(  789) = (  -0.0444377   0.6526942   0.0000000), wk =   0.0014793
        k(  790) = (  -0.0333283   0.6334973   0.0000000), wk =   0.0014793
        k(  791) = (  -0.0222189   0.6143004   0.0000000), wk =   0.0014793
        k(  792) = (  -0.0111094   0.5951035   0.0000000), wk =   0.0014793
        k(  793) = (   0.0000000   0.5759066   0.0000000), wk =   0.0014793
        k(  794) = (   0.0111094   0.5567097   0.0000000), wk =   0.0014793
        k(  795) = (   0.0222189   0.5375128   0.0000000), wk =   0.0014793
        k(  796) = (   0.0333283   0.5183160   0.0000000), wk =   0.0014793
        k(  797) = (   0.0444377   0.4991191   0.0000000), wk =   0.0014793
        k(  798) = (   0.0555472   0.4799222   0.0000000), wk =   0.0014793
        k(  799) = (   0.0666566   0.4607253   0.0000000), wk =   0.0014793
        k(  800) = (   0.0777660   0.4415284   0.0000000), wk =   0.0014793
        k(  801) = (   0.0888755   0.4223315   0.0000000), wk =   0.0014793
        k(  802) = (   0.0999849   0.4031346   0.0000000), wk =   0.0014793
        k(  803) = (   0.1110943   0.3839377   0.0000000), wk =   0.0014793
        k(  804) = (   0.1222038   0.3647409   0.0000000), wk =   0.0014793
        k(  805) = (   0.1333132   0.3455440   0.0000000), wk =   0.0014793
        k(  806) = (   0.1444226   0.3263471   0.0000000), wk =   0.0014793
        k(  807) = (   0.1555321   0.3071502   0.0000000), wk =   0.0014793
        k(  808) = (   0.1777509   0.3071502   0.0000000), wk =   0.0014793
        k(  809) = (   0.1888604   0.2879533   0.0000000), wk =   0.0014793
        k(  810) = (   0.1999698   0.2687564   0.0000000), wk =   0.0014793
        k(  811) = (   0.2110792   0.2495595   0.0000000), wk =   0.0014793
        k(  812) = (   0.2221887   0.2303626   0.0000000), wk =   0.0014793
        k(  813) = (   0.2332981   0.2111658   0.0000000), wk =   0.0014793
        k(  814) = (   0.2444075   0.1919689   0.0000000), wk =   0.0014793
        k(  815) = (   0.2555170   0.1727720   0.0000000), wk =   0.0014793
        k(  816) = (   0.2666264   0.1535751   0.0000000), wk =   0.0014793
        k(  817) = (   0.2777358   0.1343782   0.0000000), wk =   0.0014793
        k(  818) = (   0.2888453   0.1151813   0.0000000), wk =   0.0014793
        k(  819) = (   0.2999547   0.0959844   0.0000000), wk =   0.0014793
        k(  820) = (   0.3110641   0.0767875   0.0000000), wk =   0.0014793
        k(  821) = (   0.3221736   0.0575907   0.0000000), wk =   0.0014793
        k(  822) = (   0.3332830   0.0383938   0.0000000), wk =   0.0014793
        k(  823) = (   0.3443924   0.0191969   0.0000000), wk =   0.0014793
        k(  824) = (   0.3555019   0.0000000   0.0000000), wk =   0.0014793
        k(  825) = (   0.3666113  -0.0191969   0.0000000), wk =   0.0014793
        k(  826) = (   0.3777207  -0.0383938   0.0000000), wk =   0.0014793
        k(  827) = (   0.3888302  -0.0575907   0.0000000), wk =   0.0014793
        k(  828) = (   0.3999396  -0.0767875   0.0000000), wk =   0.0014793
        k(  829) = (   0.4110490  -0.0959844   0.0000000), wk =   0.0014793
        k(  830) = (   0.4221585  -0.1151813   0.0000000), wk =   0.0014793
        k(  831) = (   0.4332679  -0.1343782   0.0000000), wk =   0.0014793
        k(  832) = (   0.4443773  -0.1535751   0.0000000), wk =   0.0014793
        k(  833) = (   0.4554868  -0.1727720   0.0000000), wk =   0.0014793
        k(  834) = (  -0.1110943   0.8062693   0.0000000), wk =   0.0014793
        k(  835) = (  -0.0999849   0.7870724   0.0000000), wk =   0.0014793
        k(  836) = (  -0.0888755   0.7678755   0.0000000), wk =   0.0014793
        k(  837) = (  -0.0777660   0.7486786   0.0000000), wk =   0.0014793
        k(  838) = (  -0.0666566   0.7294817   0.0000000), wk =   0.0014793
        k(  839) = (  -0.0555472   0.7102848   0.0000000), wk =   0.0014793
        k(  840) = (  -0.0444377   0.6910879   0.0000000), wk =   0.0014793
        k(  841) = (  -0.0333283   0.6718911   0.0000000), wk =   0.0014793
        k(  842) = (  -0.0222189   0.6526942   0.0000000), wk =   0.0014793
        k(  843) = (  -0.0111094   0.6334973   0.0000000), wk =   0.0014793
        k(  844) = (   0.0000000   0.6143004   0.0000000), wk =   0.0014793
        k(  845) = (   0.0111094   0.5951035   0.0000000), wk =   0.0014793
        k(  846) = (   0.0222189   0.5759066   0.0000000), wk =   0.0014793
        k(  847) = (   0.0333283   0.5567097   0.0000000), wk =   0.0014793
        k(  848) = (   0.0444377   0.5375128   0.0000000), wk =   0.0014793
        k(  849) = (   0.0555472   0.5183160   0.0000000), wk =   0.0014793
        k(  850) = (   0.0666566   0.4991191   0.0000000), wk =   0.0014793
        k(  851) = (   0.0777660   0.4799222   0.0000000), wk =   0.0014793
        k(  852) = (   0.0888755   0.4607253   0.0000000), wk =   0.0014793
        k(  853) = (   0.0999849   0.4415284   0.0000000), wk =   0.0014793
        k(  854) = (   0.1110943   0.4223315   0.0000000), wk =   0.0014793
        k(  855) = (   0.1222038   0.4031346   0.0000000), wk =   0.0014793
        k(  856) = (   0.1333132   0.3839377   0.0000000), wk =   0.0014793
        k(  857) = (   0.1444226   0.3647409   0.0000000), wk =   0.0014793
        k(  858) = (   0.1555321   0.3455440   0.0000000), wk =   0.0014793
        k(  859) = (   0.1666415   0.3263471   0.0000000), wk =   0.0014793
        k(  860) = (   0.1888604   0.3263471   0.0000000), wk =   0.0014793
        k(  861) = (   0.1999698   0.3071502   0.0000000), wk =   0.0014793
        k(  862) = (   0.2110792   0.2879533   0.0000000), wk =   0.0014793
        k(  863) = (   0.2221887   0.2687564   0.0000000), wk =   0.0014793
        k(  864) = (   0.2332981   0.2495595   0.0000000), wk =   0.0014793
        k(  865) = (   0.2444075   0.2303626   0.0000000), wk =   0.0014793
        k(  866) = (   0.2555170   0.2111658   0.0000000), wk =   0.0014793
        k(  867) = (   0.2666264   0.1919689   0.0000000), wk =   0.0014793
        k(  868) = (   0.2777358   0.1727720   0.0000000), wk =   0.0014793
        k(  869) = (   0.2888453   0.1535751   0.0000000), wk =   0.0014793
        k(  870) = (   0.2999547   0.1343782   0.0000000), wk =   0.0014793
        k(  871) = (   0.3110641   0.1151813   0.0000000), wk =   0.0014793
        k(  872) = (   0.3221736   0.0959844   0.0000000), wk =   0.0014793
        k(  873) = (   0.3332830   0.0767875   0.0000000), wk =   0.0014793
        k(  874) = (   0.3443924   0.0575907   0.0000000), wk =   0.0014793
        k(  875) = (   0.3555019   0.0383938   0.0000000), wk =   0.0014793
        k(  876) = (   0.3666113   0.0191969   0.0000000), wk =   0.0014793
        k(  877) = (   0.3777207   0.0000000   0.0000000), wk =   0.0014793
        k(  878) = (   0.3888302  -0.0191969   0.0000000), wk =   0.0014793
        k(  879) = (   0.3999396  -0.0383938   0.0000000), wk =   0.0014793
        k(  880) = (   0.4110490  -0.0575907   0.0000000), wk =   0.0014793
        k(  881) = (   0.4221585  -0.0767875   0.0000000), wk =   0.0014793
        k(  882) = (   0.4332679  -0.0959844   0.0000000), wk =   0.0014793
        k(  883) = (   0.4443773  -0.1151813   0.0000000), wk =   0.0014793
        k(  884) = (   0.4554868  -0.1343782   0.0000000), wk =   0.0014793
        k(  885) = (   0.4665962  -0.1535751   0.0000000), wk =   0.0014793
        k(  886) = (  -0.0999849   0.8254662   0.0000000), wk =   0.0014793
        k(  887) = (  -0.0888755   0.8062693   0.0000000), wk =   0.0014793
        k(  888) = (  -0.0777660   0.7870724   0.0000000), wk =   0.0014793
        k(  889) = (  -0.0666566   0.7678755   0.0000000), wk =   0.0014793
        k(  890) = (  -0.0555472   0.7486786   0.0000000), wk =   0.0014793
        k(  891) = (  -0.0444377   0.7294817   0.0000000), wk =   0.0014793
        k(  892) = (  -0.0333283   0.7102848   0.0000000), wk =   0.0014793
        k(  893) = (  -0.0222189   0.6910879   0.0000000), wk =   0.0014793
        k(  894) = (  -0.0111094   0.6718911   0.0000000), wk =   0.0014793
        k(  895) = (   0.0000000   0.6526942   0.0000000), wk =   0.0014793
        k(  896) = (   0.0111094   0.6334973   0.0000000), wk =   0.0014793
        k(  897) = (   0.0222189   0.6143004   0.0000000), wk =   0.0014793
        k(  898) = (   0.0333283   0.5951035   0.0000000), wk =   0.0014793
        k(  899) = (   0.0444377   0.5759066   0.0000000), wk =   0.0014793
        k(  900) = (   0.0555472   0.5567097   0.0000000), wk =   0.0014793
        k(  901) = (   0.0666566   0.5375128   0.0000000), wk =   0.0014793
        k(  902) = (   0.0777660   0.5183160   0.0000000), wk =   0.0014793
        k(  903) = (   0.0888755   0.4991191   0.0000000), wk =   0.0014793
        k(  904) = (   0.0999849   0.4799222   0.0000000), wk =   0.0014793
        k(  905) = (   0.1110943   0.4607253   0.0000000), wk =   0.0014793
        k(  906) = (   0.1222038   0.4415284   0.0000000), wk =   0.0014793
        k(  907) = (   0.1333132   0.4223315   0.0000000), wk =   0.0014793
        k(  908) = (   0.1444226   0.4031346   0.0000000), wk =   0.0014793
        k(  909) = (   0.1555321   0.3839377   0.0000000), wk =   0.0014793
        k(  910) = (   0.1666415   0.3647409   0.0000000), wk =   0.0014793
        k(  911) = (   0.1777509   0.3455440   0.0000000), wk =   0.0014793
        k(  912) = (   0.1999698   0.3455440   0.0000000), wk =   0.0014793
        k(  913) = (   0.2110792   0.3263471   0.0000000), wk =   0.0014793
        k(  914) = (   0.2221887   0.3071502   0.0000000), wk =   0.0014793
        k(  915) = (   0.2332981   0.2879533   0.0000000), wk =   0.0014793
        k(  916) = (   0.2444075   0.2687564   0.0000000), wk =   0.0014793
        k(  917) = (   0.2555170   0.2495595   0.0000000), wk =   0.0014793
        k(  918) = (   0.2666264   0.2303626   0.0000000), wk =   0.0014793
        k(  919) = (   0.2777358   0.2111658   0.0000000), wk =   0.0014793
        k(  920) = (   0.2888453   0.1919689   0.0000000), wk =   0.0014793
        k(  921) = (   0.2999547   0.1727720   0.0000000), wk =   0.0014793
        k(  922) = (   0.3110641   0.1535751   0.0000000), wk =   0.0014793
        k(  923) = (   0.3221736   0.1343782   0.0000000), wk =   0.0014793
        k(  924) = (   0.3332830   0.1151813   0.0000000), wk =   0.0014793
        k(  925) = (   0.3443924   0.0959844   0.0000000), wk =   0.0014793
        k(  926) = (   0.3555019   0.0767875   0.0000000), wk =   0.0014793
        k(  927) = (   0.3666113   0.0575907   0.0000000), wk =   0.0014793
        k(  928) = (   0.3777207   0.0383938   0.0000000), wk =   0.0014793
        k(  929) = (   0.3888302   0.0191969   0.0000000), wk =   0.0014793
        k(  930) = (   0.3999396   0.0000000   0.0000000), wk =   0.0014793
        k(  931) = (   0.4110490  -0.0191969   0.0000000), wk =   0.0014793
        k(  932) = (   0.4221585  -0.0383938   0.0000000), wk =   0.0014793
        k(  933) = (   0.4332679  -0.0575907   0.0000000), wk =   0.0014793
        k(  934) = (   0.4443773  -0.0767875   0.0000000), wk =   0.0014793
        k(  935) = (   0.4554868  -0.0959844   0.0000000), wk =   0.0014793
        k(  936) = (   0.4665962  -0.1151813   0.0000000), wk =   0.0014793
        k(  937) = (   0.4777056  -0.1343782   0.0000000), wk =   0.0014793
        k(  938) = (  -0.0888755   0.8446630   0.0000000), wk =   0.0014793
        k(  939) = (  -0.0777660   0.8254662   0.0000000), wk =   0.0014793
        k(  940) = (  -0.0666566   0.8062693   0.0000000), wk =   0.0014793
        k(  941) = (  -0.0555472   0.7870724   0.0000000), wk =   0.0014793
        k(  942) = (  -0.0444377   0.7678755   0.0000000), wk =   0.0014793
        k(  943) = (  -0.0333283   0.7486786   0.0000000), wk =   0.0014793
        k(  944) = (  -0.0222189   0.7294817   0.0000000), wk =   0.0014793
        k(  945) = (  -0.0111094   0.7102848   0.0000000), wk =   0.0014793
        k(  946) = (   0.0000000   0.6910879   0.0000000), wk =   0.0014793
        k(  947) = (   0.0111094   0.6718911   0.0000000), wk =   0.0014793
        k(  948) = (   0.0222189   0.6526942   0.0000000), wk =   0.0014793
        k(  949) = (   0.0333283   0.6334973   0.0000000), wk =   0.0014793
        k(  950) = (   0.0444377   0.6143004   0.0000000), wk =   0.0014793
        k(  951) = (   0.0555472   0.5951035   0.0000000), wk =   0.0014793
        k(  952) = (   0.0666566   0.5759066   0.0000000), wk =   0.0014793
        k(  953) = (   0.0777660   0.5567097   0.0000000), wk =   0.0014793
        k(  954) = (   0.0888755   0.5375128   0.0000000), wk =   0.0014793
        k(  955) = (   0.0999849   0.5183160   0.0000000), wk =   0.0014793
        k(  956) = (   0.1110943   0.4991191   0.0000000), wk =   0.0014793
        k(  957) = (   0.1222038   0.4799222   0.0000000), wk =   0.0014793
        k(  958) = (   0.1333132   0.4607253   0.0000000), wk =   0.0014793
        k(  959) = (   0.1444226   0.4415284   0.0000000), wk =   0.0014793
        k(  960) = (   0.1555321   0.4223315   0.0000000), wk =   0.0014793
        k(  961) = (   0.1666415   0.4031346   0.0000000), wk =   0.0014793
        k(  962) = (   0.1777509   0.3839377   0.0000000), wk =   0.0014793
        k(  963) = (   0.1888604   0.3647409   0.0000000), wk =   0.0014793
        k(  964) = (   0.2110792   0.3647409   0.0000000), wk =   0.0014793
        k(  965) = (   0.2221887   0.3455440   0.0000000), wk =   0.0014793
        k(  966) = (   0.2332981   0.3263471   0.0000000), wk =   0.0014793
        k(  967) = (   0.2444075   0.3071502   0.0000000), wk =   0.0014793
        k(  968) = (   0.2555170   0.2879533   0.0000000), wk =   0.0014793
        k(  969) = (   0.2666264   0.2687564   0.0000000), wk =   0.0014793
        k(  970) = (   0.2777358   0.2495595   0.0000000), wk =   0.0014793
        k(  971) = (   0.2888453   0.2303626   0.0000000), wk =   0.0014793
        k(  972) = (   0.2999547   0.2111658   0.0000000), wk =   0.0014793
        k(  973) = (   0.3110641   0.1919689   0.0000000), wk =   0.0014793
        k(  974) = (   0.3221736   0.1727720   0.0000000), wk =   0.0014793
[...]
    -3.4786  -0.4191   1.5749   1.7003   2.3743   3.1256   4.2647   4.9268
     5.2491   5.8171   6.1685   6.1721

     occupation numbers 
     1.0000   1.0000   1.0000   1.0000   1.0000   1.0000   1.0000   1.0000
     1.0000   0.0000   0.0000   0.0000   0.0000   0.0000   0.0000   0.0000
     0.0000   0.0000   0.0000   0.0000

          k = 0.1778 0.6527 0.0000 ( 14691 PWs)   bands (ev):

   -14.9609 -14.9098  -8.6025  -8.1564  -6.3073  -6.0526  -5.5786  -4.7888
    -3.5176  -0.4468   1.5075   1.8002   2.1358   2.8370   4.3415   4.8532
     5.3642   6.1068   6.2354   6.3891

     occupation numbers 
     1.0000   1.0000   1.0000   1.0000   1.0000   1.0000   1.0000   1.0000
     1.0000   0.0000   0.0000   0.0000   0.0000   0.0000   0.0000   0.0000
     0.0000   0.0000   0.0000   0.0000

          k = 0.1889 0.6335 0.0000 ( 14710 PWs)   bands (ev):

   -14.9622 -14.9113  -8.6624  -8.2215  -6.1884  -5.9179  -5.5589  -4.7909
    -3.5606  -0.4844   1.4347   1.8840   1.9163   2.5739   4.4640   4.7745
     5.4558   6.1968   6.4461   6.5727

     occupation numbers 
     1.0000   1.0000   1.0000   1.0000   1.0000   1.0000   1.0000   1.0000
     1.0000   0.0000   0.0000   0.0000   0.0000   0.0000   0.0000   0.0000
     0.0000   0.0000   0.0000   0.0000

          k = 0.2000 0.6143 0.0000 ( 14710 PWs)   bands (ev):

   -14.9639 -14.9131  -8.7204  -8.2838  -6.0689  -5.7773  -5.5327  -4.7937
    -3.6047  -0.5322   1.3543   1.6419   2.0332   2.3539   4.6165   4.6953
     5.5369   6.2288   6.5841   6.6409

     occupation numbers 
     1.0000   1.0000   1.0000   1.0000   1.0000   1.0000   1.0000   1.0000
     1.0000   0.0000   0.0000   0.0000   0.0000   0.0000   0.0000   0.0000
     0.0000   0.0000   0.0000   0.0000

          k = 0.2111 0.5951 0.0000 ( 14716 PWs)   bands (ev):

   -14.9661 -14.9153  -8.7736  -8.3403  -5.9587  -5.6366  -5.4972  -4.7975
    -3.6470  -0.5892   1.2454   1.4456   2.0456   2.2813   4.6188   4.7879
     5.6134   6.2380   6.5978   6.6395

     occupation numbers 
     1.0000   1.0000   1.0000   1.0000   1.0000   1.0000   1.0000   1.0000
     1.0000   0.0000   0.0000   0.0000   0.0000   0.0000   0.0000   0.0000
     0.0000   0.0000   0.0000   0.0000

          k = 0.2222 0.5759 0.0000 ( 14718 PWs)   bands (ev):

   -14.9688 -14.9180  -8.8197  -8.3888  -5.8679  -5.5018  -5.4493  -4.8024
    -3.6850  -0.6525   1.0808   1.3342   1.9094   2.3966   4.5469   4.9690
     5.6856   6.2130   6.5153   6.6839

     occupation numbers 
     1.0000   1.0000   1.0000   1.0000   1.0000   1.0000   1.0000   1.0000
     1.0000   0.0000   0.0000   0.0000   0.0000   0.0000   0.0000   0.0000
     0.0000   0.0000   0.0000   0.0000

          k = 0.2333 0.5567 0.0000 ( 14714 PWs)   bands (ev):

   -14.9720 -14.9212  -8.8571  -8.4277  -5.8036  -5.3891  -5.3785  -4.8087
    -3.7162  -0.7175   0.9037   1.2738   1.7787   2.5389   4.4810   5.1516
     5.7479   6.1527   6.4285   6.7425

     occupation numbers 
     1.0000   1.0000   1.0000   1.0000   1.0000   1.0000   1.0000   1.0000
     1.0000   0.0000   0.0000   0.0000   0.0000   0.0000   0.0000   0.0000
     0.0000   0.0000   0.0000   0.0000

          k = 0.2444 0.5375 0.0000 ( 14695 PWs)   bands (ev):

   -14.9759 -14.9250  -8.8845  -8.4560  -5.7655  -5.3237  -5.2724  -4.8166
    -3.7388  -0.7777   0.7509   1.2359   1.6772   2.6744   4.4224   5.3267
     5.7864   6.0742   6.3609   6.8142

     occupation numbers 
     1.0000   1.0000   1.0000   1.0000   1.0000   1.0000   1.0000   1.0000
     1.0000   0.0000   0.0000   0.0000   0.0000   0.0000   0.0000   0.0000
     0.0000   0.0000   0.0000   0.0000

          k = 0.2555 0.5183 0.0000 ( 14678 PWs)   bands (ev):

   -14.9803 -14.9292  -8.9012  -8.4730  -5.7483  -5.2649  -5.1892  -4.8258
    -3.7513  -0.8261   0.6364   1.2135   1.6069   2.7883   4.3736   5.4827
     5.7829   5.9998   6.3309   6.8576

     occupation numbers 
     1.0000   1.0000   1.0000   1.0000   1.0000   1.0000   1.0000   1.0000
     1.0000   0.0000   0.0000   0.0000   0.0000   0.0000   0.0000   0.0000
     0.0000   0.0000   0.0000   0.0000

          k = 0.2666 0.4991 0.0000 ( 14682 PWs)   bands (ev):

   -14.9853 -14.9340  -8.9068  -8.4783  -5.7466  -5.2236  -5.1345  -4.8352
    -3.7527  -0.8559   0.5671   1.2050   1.5671   2.8665   4.3397   5.6025
     5.7334   5.9469   6.3353   6.7792

     occupation numbers 
     1.0000   1.0000   1.0000   1.0000   1.0000   1.0000   1.0000   1.0000
     1.0000   0.0000   0.0000   0.0000   0.0000   0.0000   0.0000   0.0000
     0.0000   0.0000   0.0000   0.0000

          k =-0.2888-0.4991 0.0000 ( 14670 PWs)   bands (ev):

   -14.9851 -14.9338  -8.9125  -8.4843  -5.7414  -5.2099  -5.1165  -4.8369
    -3.7586  -0.8685   0.5417   1.1984   1.5524   2.8934   4.3271   5.6709
     5.7196   5.9310   6.3204   6.8179

     occupation numbers 
     1.0000   1.0000   1.0000   1.0000   1.0000   1.0000   1.0000   1.0000
     1.0000   0.0000   0.0000   0.0000   0.0000   0.0000   0.0000   0.0000
     0.0000   0.0000   0.0000   0.0000

          k =-0.2777-0.5183 0.0000 ( 14680 PWs)   bands (ev):

   -14.9853 -14.9340  -8.9069  -8.4784  -5.7465  -5.2236  -5.1345  -4.8352
    -3.7528  -0.8560   0.5670   1.2049   1.5670   2.8665   4.3398   5.6040
     5.7317   5.9467   6.3363   6.7799

     occupation numbers 
     1.0000   1.0000   1.0000   1.0000   1.0000   1.0000   1.0000   1.0000
     1.0000   0.0000   0.0000   0.0000   0.0000   0.0000   0.0000   0.0000
     0.0000   0.0000   0.0000   0.0000

          k =-0.2666-0.5375 0.0000 ( 14693 PWs)   bands (ev):

   -14.9860 -14.9346  -8.8900  -8.4607  -5.7621  -5.2629  -5.1860  -4.8314
    -3.7357  -0.8201   0.6414   1.2246   1.6113   2.7906   4.3754   5.4800
     5.7032   5.9884   6.3861   6.6830

     occupation numbers 
     1.0000   1.0000   1.0000   1.0000   1.0000   1.0000   1.0000   1.0000
     1.0000   0.0000   0.0000   0.0000   0.0000   0.0000   0.0000   0.0000
     0.0000   0.0000   0.0000   0.0000

          k =-0.2555-0.5567 0.0000 ( 14709 PWs)   bands (ev):

   -14.9872 -14.9356  -8.8625  -8.4316  -5.7895  -5.3225  -5.2659  -4.8277
    -3.7085  -0.7653   0.7609   1.2577   1.6861   2.6777   4.4286   5.3278
     5.6380   6.0406   6.4613   6.5977

     occupation numbers 
     1.0000   1.0000   1.0000   1.0000   1.0000   1.0000   1.0000   1.0000
     1.0000   0.0000   0.0000   0.0000   0.0000   0.0000   0.0000   0.0000
     0.0000   0.0000   0.0000   0.0000

          k =-0.2444-0.5759 0.0000 ( 14711 PWs)   bands (ev):

   -14.9888 -14.9369  -8.8249  -8.3919  -5.8308  -5.3941  -5.3681  -4.8250
    -3.6726  -0.6980   0.9186   1.3054   1.7917   2.5422   4.4941   5.1587
     5.5577   6.0814   6.5337   6.5415

     occupation numbers 
     1.0000   1.0000   1.0000   1.0000   1.0000   1.0000   1.0000   1.0000
     1.0000   0.0000   0.0000   0.0000   0.0000   0.0000   0.0000   0.0000
     0.0000   0.0000   0.0000   0.0000

          k =-0.2333-0.5951 0.0000 ( 14705 PWs)   bands (ev):

   -14.9906 -14.9384  -8.7784  -8.3424  -5.8890  -5.4868  -5.4677  -4.8237
    -3.6302  -0.6249   1.1016   1.3731   1.9248   2.4009   4.5680   4.9823
     5.4745   6.0930   6.4911   6.6007

     occupation numbers 
     1.0000   1.0000   1.0000   1.0000   1.0000   1.0000   1.0000   1.0000
     1.0000   0.0000   0.0000   0.0000   0.0000   0.0000   0.0000   0.0000
     0.0000   0.0000   0.0000   0.0000

          k =-0.2222-0.6143 0.0000 ( 14706 PWs)   bands (ev):

   -14.9926 -14.9400  -8.7245  -8.2846  -5.9659  -5.6160  -5.5340  -4.8234
    -3.5835  -0.5521   1.2773   1.4849   2.0518   2.2975   4.6476   4.8074
     5.3928   6.0758   6.4549   6.6066

     occupation numbers 
     1.0000   1.0000   1.0000   1.0000   1.0000   1.0000   1.0000   1.0000
     1.0000   0.0000   0.0000   0.0000   0.0000   0.0000   0.0000   0.0000
     0.0000   0.0000   0.0000   0.0000

          k =-0.2111-0.6335 0.0000 ( 14710 PWs)   bands (ev):

   -14.9945 -14.9417  -8.6653  -8.2205  -6.0588  -5.7499  -5.5880  -4.8239
    -3.5353  -0.4843   1.3994   1.6772   2.0209   2.3907   4.6422   4.7301
     5.3127   6.0426   6.3921   6.5329

     occupation numbers 
     1.0000   1.0000   1.0000   1.0000   1.0000   1.0000   1.0000   1.0000
     1.0000   0.0000   0.0000   0.0000   0.0000   0.0000   0.0000   0.0000
     0.0000   0.0000   0.0000   0.0000

          k =-0.2000-0.6527 0.0000 ( 14695 PWs)   bands (ev):

   -14.9964 -14.9433  -8.6034  -8.1527  -6.1606  -5.8822  -5.6295  -4.8248
    -3.4881  -0.4246   1.4859   1.9016   1.9195   2.6151   4.4955   4.8122
     5.2308   6.0009   6.2147   6.3688

     occupation numbers 
     1.0000   1.0000   1.0000   1.0000   1.0000   1.0000   1.0000   1.0000
     1.0000   0.0000   0.0000   0.0000   0.0000   0.0000   0.0000   0.0000
     0.0000   0.0000   0.0000   0.0000

          k =-0.1889-0.6719 0.0000 ( 14695 PWs)   bands (ev):

   -14.9981 -14.9446  -8.5425  -8.0848  -6.2621  -6.0066  -5.6605  -4.8258
    -3.4447  -0.3746   1.5597   1.7842   2.1730   2.8814   4.3781   4.8897
     5.1394   5.8606   6.0128   6.1430

     occupation numbers 
     1.0000   1.0000   1.0000   1.0000   1.0000   1.0000   1.0000   1.0000
     1.0000   0.0000   0.0000   0.0000   0.0000   0.0000   0.0000   0.0000
     0.0000   0.0000   0.0000   0.0000

          k =-0.1778-0.6911 0.0000 ( 14709 PWs)   bands (ev):

   -14.9994 -14.9457  -8.4867  -8.0216  -6.3539  -6.1161  -5.6830  -4.8267
    -3.4076  -0.3351   1.6240   1.6845   2.4128   3.1717   4.3039   4.9573
     5.0246   5.5272   5.9157   5.9731

     occupation numbers 
     1.0000   1.0000   1.0000   1.0000   1.0000   1.0000   1.0000   1.0000
     1.0000   0.0000   0.0000   0.0000   0.0000   0.0000   0.0000   0.0000
     0.0000   0.0000   0.0000   0.0000

          k =-0.1666-0.7103 0.0000 ( 14709 PWs)   bands (ev):

   -15.0003 -14.9464  -8.4412  -7.9690  -6.4277  -6.2031  -5.6983  -4.8274
    -3.3790  -0.3069   1.6089   1.6755   2.6127   3.4701   4.2899   4.8730
     5.0040   5.1876   5.7383   5.9565

     occupation numbers 
     1.0000   1.0000   1.0000   1.0000   1.0000   1.0000   1.0000   1.0000
     1.0000   0.0000   0.0000   0.0000   0.0000   0.0000   0.0000   0.0000
     0.0000   0.0000   0.0000   0.0000

          k =-0.1555-0.7295 0.0000 ( 14704 PWs)   bands (ev):

   -15.0007 -14.9467  -8.4108  -7.9335  -6.4761  -6.2602  -5.7072  -4.8278
    -3.3608  -0.2901   1.5616   1.7096   2.7443   3.7401   4.3462   4.6954
     4.8636   5.0613   5.6354   5.9488

     occupation numbers 
     1.0000   1.0000   1.0000   1.0000   1.0000   1.0000   1.0000   1.0000
     1.0000   0.0000   0.0000   0.0000   0.0000   0.0000   0.0000   0.0000
     0.0000   0.0000   0.0000   0.0000

          k =-0.1444-0.7487 0.0000 ( 14706 PWs)   bands (ev):

   -15.0006 -14.9466  -8.3995  -7.9203  -6.4940  -6.2811  -5.7099  -4.8277
    -3.3541  -0.2851   1.5449   1.7223   2.7867   3.8643   4.4127   4.5847
     4.7333   5.0694   5.6047   5.9469

     occupation numbers 
     1.0000   1.0000   1.0000   1.0000   1.0000   1.0000   1.0000   1.0000
     1.0000   0.0000   0.0000   0.0000   0.0000   0.0000   0.0000   0.0000
     0.0000   0.0000   0.0000   0.0000

          k =-0.1333-0.7679 0.0000 ( 14708 PWs)   bands (ev):

   -15.0000 -14.9460  -8.4089  -7.9318  -6.4794  -6.2636  -5.7066  -4.8272
    -3.3594  -0.2920   1.5597   1.7119   2.7339   3.7201   4.3306   4.7134
     4.8837   5.0637   5.6415   5.9499

     occupation numbers 
     1.0000   1.0000   1.0000   1.0000   1.0000   1.0000   1.0000   1.0000
     1.0000   0.0000   0.0000   0.0000   0.0000   0.0000   0.0000   0.0000
     0.0000   0.0000   0.0000   0.0000

          k =-0.1222-0.7871 0.0000 ( 14708 PWs)   bands (ev):

   -14.9988 -14.9449  -8.4377  -7.9659  -6.4339  -6.2097  -5.6973  -4.8262
    -3.3762  -0.3107   1.6051   1.6797   2.5943   3.4444   4.2748   4.8899
     5.0070   5.2148   5.7514   5.9588

     occupation numbers 
     1.0000   1.0000   1.0000   1.0000   1.0000   1.0000   1.0000   1.0000
     1.0000   0.0000   0.0000   0.0000   0.0000   0.0000   0.0000   0.0000
     0.0000   0.0000   0.0000   0.0000

          k =-0.1111-0.8063 0.0000 ( 14710 PWs)   bands (ev):

   -14.9971 -14.9435  -8.4820  -8.0174  -6.3624  -6.1254  -5.6818  -4.8249
    -3.4035  -0.3407   1.6294   1.6787   2.3896   3.1451   4.2891   4.9598
     5.0380   5.5566   5.9353   5.9768

     occupation numbers 
     1.0000   1.0000   1.0000   1.0000   1.0000   1.0000   1.0000   1.0000
     1.0000   0.0000   0.0000   0.0000   0.0000   0.0000   0.0000   0.0000
     0.0000   0.0000   0.0000   0.0000

          k =-0.1000-0.8255 0.0000 ( 14699 PWs)   bands (ev):

   -14.9951 -14.9417  -8.5368  -8.0799  -6.2721  -6.0182  -5.6594  -4.8234
    -3.4396  -0.3817   1.5655   1.7766   2.1479   2.8554   4.3626   4.8926
     5.1501   5.8839   6.0220   6.1658

     occupation numbers 
     1.0000   1.0000   1.0000   1.0000   1.0000   1.0000   1.0000   1.0000
     1.0000   0.0000   0.0000   0.0000   0.0000   0.0000   0.0000   0.0000
     0.0000   0.0000   0.0000   0.0000

          k =-0.0889-0.8447 0.0000 ( 14702 PWs)   bands (ev):

   -14.9927 -14.9396  -8.5972  -8.1475  -6.1711  -5.8957  -5.6293  -4.8219
    -3.4822  -0.4332   1.4902   1.8925   1.8954   2.5897   4.4789   4.8152
     5.2402   6.0064   6.2359   6.3893

     occupation numbers 
     1.0000   1.0000   1.0000   1.0000   1.0000   1.0000   1.0000   1.0000
     1.0000   0.0000   0.0000   0.0000   0.0000   0.0000   0.0000   0.0000
     0.0000   0.0000   0.0000   0.0000

          k =-0.0778-0.8639 0.0000 ( 14717 PWs)   bands (ev):

   -14.9902 -14.9375  -8.6587  -8.2152  -6.0685  -5.7649  -5.5897  -4.8206
    -3.5288  -0.4943   1.3977   1.6592   2.0116   2.3650   4.6244   4.7331
     5.3218   6.0477   6.4011   6.5465

     occupation numbers 
     1.0000   1.0000   1.0000   1.0000   1.0000   1.0000   1.0000   1.0000
     1.0000   0.0000   0.0000   0.0000   0.0000   0.0000   0.0000   0.0000
     0.0000   0.0000   0.0000   0.0000

          k =-0.0667-0.8831 0.0000 ( 14712 PWs)   bands (ev):

   -14.9877 -14.9353  -8.7178  -8.2793  -5.9732  -5.6324  -5.5389  -4.8197
    -3.5766  -0.5633   1.2604   1.4827   2.0417   2.2721   4.6506   4.7884
     5.4020   6.0806   6.4600   6.6150

     occupation numbers 
     1.0000   1.0000   1.0000   1.0000   1.0000   1.0000   1.0000   1.0000
     1.0000   0.0000   0.0000   0.0000   0.0000   0.0000   0.0000   0.0000
     0.0000   0.0000   0.0000   0.0000

          k =-0.0555-0.9023 0.0000 ( 14716 PWs)   bands (ev):

   -14.9852 -14.9331  -8.7716  -8.3372  -5.8929  -5.5042  -5.4769  -4.8197
    -3.6229  -0.6371   1.0747   1.3812   1.9116   2.3783   4.5710   4.9625
     5.4840   6.0966   6.4958   6.6080

     occupation numbers 
     1.0000   1.0000   1.0000   1.0000   1.0000   1.0000   1.0000   1.0000
     1.0000   0.0000   0.0000   0.0000   0.0000   0.0000   0.0000   0.0000
     0.0000   0.0000   0.0000   0.0000

          k =-0.0444-0.9215 0.0000 ( 14714 PWs)   bands (ev):

   -14.9830 -14.9312  -8.8182  -8.3868  -5.8310  -5.4076  -5.3864  -4.8208
    -3.6652  -0.7111   0.8896   1.3160   1.7788   2.5188   4.4971   5.1384
     5.5672   6.0827   6.5395   6.5493

     occupation numbers 
     1.0000   1.0000   1.0000   1.0000   1.0000   1.0000   1.0000   1.0000
     1.0000   0.0000   0.0000   0.0000   0.0000   0.0000   0.0000   0.0000
     0.0000   0.0000   0.0000   0.0000

          k =-0.0333-0.9406 0.0000 ( 14703 PWs)   bands (ev):

   -14.9811 -14.9296  -8.8558  -8.4267  -5.7867  -5.3394  -5.2850  -4.8232
    -3.7009  -0.7791   0.7317   1.2690   1.6740   2.6526   4.4319   5.3077
     5.6466   6.0394   6.4701   6.6051

     occupation numbers 
     1.0000   1.0000   1.0000   1.0000   1.0000   1.0000   1.0000   1.0000
     1.0000   0.0000   0.0000   0.0000   0.0000   0.0000   0.0000   0.0000
     0.0000   0.0000   0.0000   0.0000

          k =-0.0222-0.9598 0.0000 ( 14701 PWs)   bands (ev):

   -14.9797 -14.9284  -8.8835  -8.4559  -5.7573  -5.2822  -5.2058  -4.8267
    -3.7281  -0.8344   0.6123   1.2361   1.6001   2.7638   4.3791   5.4608
     5.7099   5.9855   6.3964   6.6921

     occupation numbers 
     1.0000   1.0000   1.0000   1.0000   1.0000   1.0000   1.0000   1.0000
     1.0000   0.0000   0.0000   0.0000   0.0000   0.0000   0.0000   0.0000
     0.0000   0.0000   0.0000   0.0000

          k =-0.0111-0.9790 0.0000 ( 14680 PWs)   bands (ev):

   -14.9788 -14.9276  -8.9003  -8.4736  -5.7405  -5.2443  -5.1548  -4.8301
    -3.7451  -0.8705   0.5380   1.2165   1.5564   2.8384   4.3438   5.5850
     5.7367   5.9430   6.3487   6.7903

     occupation numbers 
     1.0000   1.0000   1.0000   1.0000   1.0000   1.0000   1.0000   1.0000
     1.0000   0.0000   0.0000   0.0000   0.0000   0.0000   0.0000   0.0000
     0.0000   0.0000   0.0000   0.0000

          k =-0.5777 0.0000 0.0000 ( 14678 PWs)   bands (ev):

   -14.9785 -14.9274  -8.9060  -8.4796  -5.7351  -5.2311  -5.1371  -4.8316
    -3.7509  -0.8831   0.5128   1.2099   1.5419   2.8648   4.3313   5.6468
     5.7289   5.9271   6.3339   6.8178

     occupation numbers 
     1.0000   1.0000   1.0000   1.0000   1.0000   1.0000   1.0000   1.0000
     1.0000   0.0000   0.0000   0.0000   0.0000   0.0000   0.0000   0.0000
     0.0000   0.0000   0.0000   0.0000

     the Fermi energy is    -2.6895 ev
     (compare with:    -2.9674 eV, computed in scf)

     Writing all to output data dir ./work/Al2S2.save/
 
     init_run     :      0.40s CPU      0.46s WALL (       1 calls)
     electrons    :   1614.99s CPU   1864.85s WALL (       1 calls)

     Called by init_run:
     wfcinit      :      0.00s CPU      0.00s WALL (       1 calls)
     wfcinit:atom :      0.37s CPU      0.43s WALL (    1354 calls)
     wfcinit:wfcr :     30.40s CPU     36.91s WALL (    1354 calls)
     potinit      :      0.06s CPU      0.08s WALL (       1 calls)
     hinit0       :      0.12s CPU      0.13s WALL (       1 calls)

     Called by electrons:
     c_bands      :   1614.93s CPU   1864.76s WALL (       1 calls)
     v_of_rho     :      0.01s CPU      0.01s WALL (       1 calls)
     v_h          :      0.00s CPU      0.00s WALL (       1 calls)
     v_xc         :      0.01s CPU      0.01s WALL (       1 calls)
     newd         :      0.07s CPU      0.10s WALL (       1 calls)
     PAW_pot      :      0.05s CPU      0.06s WALL (       1 calls)

     Called by c_bands:
     init_us_2    :      1.04s CPU      1.22s WALL (    1354 calls)
     init_us_2:cp :      1.04s CPU      1.22s WALL (    1354 calls)
     cegterg      :   1572.23s CPU   1814.87s WALL (    5342 calls)

     Called by sum_band:

     Called by *egterg:
     cdiaghg      :     45.44s CPU     47.38s WALL (   95479 calls)
     cegterg:over :     94.52s CPU     98.30s WALL (   94125 calls)
     cegterg:upda :     49.50s CPU     50.76s WALL (   94125 calls)
     cegterg:last :    147.80s CPU    149.37s WALL (   57479 calls)
     h_psi        :   1144.67s CPU   1381.25s WALL (  100821 calls)
     s_psi        :     92.49s CPU     95.90s WALL (  100821 calls)
     g_psi        :      4.11s CPU      4.20s WALL (   94125 calls)

     Called by h_psi:
     h_psi:calbec :     95.42s CPU    114.85s WALL (  100821 calls)
     vloc_psi     :    891.42s CPU   1095.35s WALL (  100821 calls)
     add_vuspsi   :    149.27s CPU    162.33s WALL (  100821 calls)

     General routines
     calbec       :     95.11s CPU    114.53s WALL (  100821 calls)
     fft          :      0.01s CPU      0.02s WALL (      12 calls)
     fftw         :    824.39s CPU   1016.95s WALL ( 2176446 calls)
     davcio       :      0.81s CPU      1.14s WALL (    2708 calls)
 
     Parallel routines

     PAW routines
     PAW_pot      :      0.05s CPU      0.06s WALL (       1 calls)
 
     PWSCF        :  26m59.66s CPU  31m18.59s WALL

 
   This run was terminated on:  13:24: 7  22Jun2023            

=------------------------------------------------------------------------------=
   JOB DONE.
=------------------------------------------------------------------------------=
