
     Program BANDS v.7.1 starts on 12Jun2023 at 13:48:40 

     This program is part of the open-source Quantum ESPRESSO suite
     for quantum simulation of materials; please cite
         "P. Giannozzi et al., J. Phys.:Condens. Matter 21 395502 (2009);
         "P. Giannozzi et al., J. Phys.:Condens. Matter 29 465901 (2017);
         "P. Giannozzi et al., J. Chem. Phys. 152 154105 (2020);
          URL http://www.quantum-espresso.org", 
     in publications or presentations arising from this work. More details at
     http://www.quantum-espresso.org/quote

     Parallel version (MPI), running on     6 processors

     MPI processes distributed on     1 nodes
     R & G space division:  proc/nbgrp/npool/nimage =       6
     101051 MiB available memory on the printing compute node when the environment starts
 

     Reading xml data from directory:

     ./work/Al2SO.save/
     Message from routine volume:
     axis vectors are left-handed
     file Al.pbe-n-kjpaw_psl.1.0.0.UPF: wavefunction(s)  3S 3P renormalized
     file O.pbe-n-kjpaw_psl.1.0.0.UPF: wavefunction(s)  2S 2P renormalized
     file S.pbe-n-kjpaw_psl.1.0.0.UPF: wavefunction(s)  3S 3P renormalized

     IMPORTANT: XC functional enforced from input :
     Exchange-correlation= VDW-DF2-B86R
                           (   1   4  26   0   2   0   0)
     Any further DFT definition will be discarded
     Please, verify this is what you really want

 
     Parallelization info
     --------------------
     sticks:   dense  smooth     PW     G-vecs:    dense   smooth      PW
     Min         108     108     31                 8838     8838    1409
     Max         109     109     32                 8844     8844    1422
     Sum         649     649    187                53045    53045    8473
 
     Using Slab Decomposition
 

     Check: negative core charge=   -0.000003


     %%%%%%%%%%%%%%%%%%%%%%%%%%%%%%%%%%%%%%%%%%%%%%%%%%%%%%%%%%%%%%%%%%%%%%%%
     %                                                                      %
     % You are using vdW-DF, which was implemented by the Thonhauser group. %
     % Please cite the following two papers that made this development      %
     % possible and the two reviews that describe the various versions:     %
     %                                                                      %
     %   T. Thonhauser et al., PRL 115, 136402 (2015).                      %
     %   T. Thonhauser et al., PRB 76, 125112 (2007).                       %
     %   K. Berland et al., Rep. Prog. Phys. 78, 066501 (2015).             %
     %   D.C. Langreth et al., J. Phys.: Condens. Matter 21, 084203 (2009). %
     %                                                                      %
     % If you are calculating stress with vdW-DF, please also cite:         %
     %                                                                      %
     %   R. Sabatini et al., J. Phys.: Condens. Matter 24, 424209 (2012).   %
     %                                                                      %
     %%%%%%%%%%%%%%%%%%%%%%%%%%%%%%%%%%%%%%%%%%%%%%%%%%%%%%%%%%%%%%%%%%%%%%%%

     %%%%%%%%%%%%%%%%%%%%%%%%%%%%%%%%%%%%%%%%%%%%%%%%%%%%%%%%%%%%%%%%%%%%%%%%
     %                                                                      %
     %  vdW-DF NEWS:                                                        %
     %                                                                      %
     %  * vdW-DF3 is now available. DOI: 10.1021/acs.jctc.0c00471           %
     %    use with input_dft = 'vdW-DF3-opt1' or 'vdW-DF3-opt2'             %
     %                                                                      %
     %  * Unscreened and range-separated vdW-DF hybrid functionals          %
     %    DOI: 10.1063/1.4986522 and 10.1088/1361-648X/ac2ad2               %
     %    use with input_dft = 'vdW-DF-cx0' (etc) and 'vdW-DF-ahcx'         %
     %                                                                      %
     %%%%%%%%%%%%%%%%%%%%%%%%%%%%%%%%%%%%%%%%%%%%%%%%%%%%%%%%%%%%%%%%%%%%%%%%


     Reading collected, re-writing distributed wavefunctions
     high-symmetry point:  0.0000 0.0000 0.0000   x coordinate   0.0000
     high-symmetry point:  0.5773 0.3334-0.0000   x coordinate   0.6667
     high-symmetry point:  0.5773 0.0000-0.0000   x coordinate   1.0001
     high-symmetry point:  0.0000 0.0000 0.0000   x coordinate   1.5774

     Plottable bands (eV) written to file Al2SO.bands.gnu
     Bands written to file Al2SO.bands

 **************************************************************************

                    xk=(   0.00000,   0.00000,   0.00000  )

     point group C_s (m)    
     there are  2 classes
     the character table:

       E     s    
A'     1.00  1.00
A''    1.00 -1.00

     the symmetry operations in each class and the name of the first element:

     E        1
                                                                 
     s        2
                                                                 

     Band symmetry, C_s (m)     point group:

     e(  1 -  1) =    -13.07767  eV     1   --> A'             
     e(  2 -  2) =    -13.07438  eV     1   --> A'             
     e(  3 -  3) =     -7.92996  eV     1   --> A'             
     e(  4 -  4) =     -7.90300  eV     1   --> A'             
     e(  5 -  5) =     -0.58670  eV     1   --> A'             
     e(  6 -  6) =      0.19290  eV     1   --> A'             
     e(  7 -  7) =      1.06763  eV     1   --> A'             
     e(  8 -  8) =      1.71572  eV     1   --> A'             
     e(  9 -  9) =      1.71589  eV     1   --> A''            
     e( 10 - 10) =      1.71782  eV     1   --> A'             
     e( 11 - 11) =      1.71797  eV     1   --> A''            
     e( 12 - 12) =      2.90308  eV     1   --> A'             
     e( 13 - 13) =      3.93125  eV     1   --> A'             
     e( 14 - 14) =      5.72729  eV     1   --> A'             
     e( 15 - 15) =      5.72780  eV     1   --> A''            
     e( 16 - 16) =      5.73438  eV     1   --> A'             
     e( 17 - 17) =      5.73487  eV     1   --> A''            
     e( 18 - 18) =      6.09694  eV     1   --> A'             
     e( 19 - 19) =      7.37159  eV     1   --> A'             
     e( 20 - 20) =      9.59890  eV     1   --> A'             
     e( 21 - 21) =     11.84581  eV     1   --> A'             
     e( 22 - 22) =     11.85312  eV     1   --> A'             
     e( 23 - 23) =     12.06605  eV     1   --> A'             
     e( 24 - 24) =     13.20392  eV     1   --> A'             
     e( 25 - 25) =     13.20503  eV     1   --> A''            

 **************************************************************************

 **************************************************************************

                    xk=(   0.01924,   0.01111,  -0.00000  )

     point group C_1 (1)    
     there are  1 classes
     the character table:

       E    
A      1.00

     the symmetry operations in each class and the name of the first element:

     E        1
                                                                 

     Band symmetry, C_1 (1)     point group:

     e(  1 -  1) =    -13.07586  eV     1   --> A              
     e(  2 -  2) =    -13.07257  eV     1   --> A              
     e(  3 -  3) =     -7.92539  eV     1   --> A              
     e(  4 -  4) =     -7.89850  eV     1   --> A              
     e(  5 -  5) =     -0.58137  eV     1   --> A              
     e(  6 -  6) =      0.19271  eV     1   --> A              
     e(  7 -  7) =      1.07114  eV     1   --> A              
     e(  8 -  8) =      1.69285  eV     1   --> A              
     e(  9 -  9) =      1.70936  eV     1   --> A              
     e( 10 - 10) =      1.71383  eV     1   --> A              
     e( 11 - 11) =      1.71591  eV     1   --> A              
     e( 12 - 12) =      2.91614  eV     1   --> A              
     e( 13 - 13) =      3.93881  eV     1   --> A              
     e( 14 - 14) =      5.69737  eV     1   --> A              
     e( 15 - 15) =      5.70240  eV     1   --> A              
     e( 16 - 16) =      5.72069  eV     1   --> A              
     e( 17 - 17) =      5.72779  eV     1   --> A              
     e( 18 - 18) =      6.09741  eV     1   --> A              
     e( 19 - 19) =      7.38645  eV     1   --> A              
     e( 20 - 20) =      9.60808  eV     1   --> A              
     e( 21 - 21) =     11.84414  eV     1   --> A              
     e( 22 - 22) =     11.88120  eV     1   --> A              
     e( 23 - 23) =     12.09001  eV     1   --> A              
     e( 24 - 24) =     13.18148  eV     1   --> A              
     e( 25 - 25) =     13.21519  eV     1   --> A              

 **************************************************************************

 **************************************************************************

                    xk=(   0.03849,   0.02223,  -0.00000  )

     Band symmetry, C_1 (1)     point group:

     e(  1 -  1) =    -13.07045  eV     1   --> A              
     e(  2 -  2) =    -13.06718  eV     1   --> A              
     e(  3 -  3) =     -7.91168  eV     1   --> A              
     e(  4 -  4) =     -7.88500  eV     1   --> A              
     e(  5 -  5) =     -0.56538  eV     1   --> A              
     e(  6 -  6) =      0.19177  eV     1   --> A              
     e(  7 -  7) =      1.08161  eV     1   --> A              
     e(  8 -  8) =      1.62379  eV     1   --> A              
     e(  9 -  9) =      1.68932  eV     1   --> A              
     e( 10 - 10) =      1.70771  eV     1   --> A              
     e( 11 - 11) =      1.70980  eV     1   --> A              
     e( 12 - 12) =      2.95126  eV     1   --> A              
     e( 13 - 13) =      3.96102  eV     1   --> A              
     e( 14 - 14) =      5.60465  eV     1   --> A              
     e( 15 - 15) =      5.61471  eV     1   --> A              
     e( 16 - 16) =      5.69966  eV     1   --> A              
     e( 17 - 17) =      5.70683  eV     1   --> A              
     e( 18 - 18) =      6.09830  eV     1   --> A              
     e( 19 - 19) =      7.43044  eV     1   --> A              
     e( 20 - 20) =      9.63516  eV     1   --> A              
     e( 21 - 21) =     11.83345  eV     1   --> A              
     e( 22 - 22) =     11.96181  eV     1   --> A              
     e( 23 - 23) =     12.16293  eV     1   --> A              
     e( 24 - 24) =     13.11670  eV     1   --> A              
     e( 25 - 25) =     13.23376  eV     1   --> A              

 **************************************************************************

 **************************************************************************

                    xk=(   0.05773,   0.03334,  -0.00000  )

     Band symmetry, C_1 (1)     point group:

     e(  1 -  1) =    -13.06150  eV     1   --> A              
     e(  2 -  2) =    -13.05826  eV     1   --> A              
     e(  3 -  3) =     -7.88891  eV     1   --> A              
     e(  4 -  4) =     -7.86258  eV     1   --> A              
     e(  5 -  5) =     -0.53878  eV     1   --> A              
     e(  6 -  6) =      0.18892  eV     1   --> A              
     e(  7 -  7) =      1.09886  eV     1   --> A              
     e(  8 -  8) =      1.51975  eV     1   --> A              
     e(  9 -  9) =      1.65901  eV     1   --> A              
     e( 10 - 10) =      1.69745  eV     1   --> A              
     e( 11 - 11) =      1.69960  eV     1   --> A              
     e( 12 - 12) =      2.99918  eV     1   --> A              
     e( 13 - 13) =      3.99617  eV     1   --> A              
     e( 14 - 14) =      5.45485  eV     1   --> A              
     e( 15 - 15) =      5.48208  eV     1   --> A              
     e( 16 - 16) =      5.66436  eV     1   --> A              
     e( 17 - 17) =      5.67170  eV     1   --> A              
     e( 18 - 18) =      6.09855  eV     1   --> A              
     e( 19 - 19) =      7.50197  eV     1   --> A              
     e( 20 - 20) =      9.67878  eV     1   --> A              
     e( 21 - 21) =     11.80797  eV     1   --> A              
     e( 22 - 22) =     12.08324  eV     1   --> A              
     e( 23 - 23) =     12.27907  eV     1   --> A              
     e( 24 - 24) =     13.01778  eV     1   --> A              
     e( 25 - 25) =     13.12463  eV     1   --> A              

 **************************************************************************

 **************************************************************************

                    xk=(   0.07698,   0.04445,  -0.00000  )

     Band symmetry, C_1 (1)     point group:

     e(  1 -  1) =    -13.04911  eV     1   --> A              
     e(  2 -  2) =    -13.04592  eV     1   --> A              
     e(  3 -  3) =     -7.85719  eV     1   --> A              
     e(  4 -  4) =     -7.83134  eV     1   --> A              
     e(  5 -  5) =     -0.50165  eV     1   --> A              
     e(  6 -  6) =      0.18225  eV     1   --> A              
     e(  7 -  7) =      1.12256  eV     1   --> A              
     e(  8 -  8) =      1.39099  eV     1   --> A              
     e(  9 -  9) =      1.62269  eV     1   --> A              
     e( 10 - 10) =      1.68291  eV     1   --> A              
     e( 11 - 11) =      1.68519  eV     1   --> A              
     e( 12 - 12) =      3.05050  eV     1   --> A              
     e( 13 - 13) =      4.04041  eV     1   --> A              
     e( 14 - 14) =      5.26037  eV     1   --> A              
     e( 15 - 15) =      5.31511  eV     1   --> A              
     e( 16 - 16) =      5.61449  eV     1   --> A              
     e( 17 - 17) =      5.62212  eV     1   --> A              
     e( 18 - 18) =      6.09700  eV     1   --> A              
     e( 19 - 19) =      7.59891  eV     1   --> A              
     e( 20 - 20) =      9.73692  eV     1   --> A              
     e( 21 - 21) =     11.76655  eV     1   --> A              
     e( 22 - 22) =     12.22828  eV     1   --> A              
     e( 23 - 23) =     12.42265  eV     1   --> A              
     e( 24 - 24) =     12.89495  eV     1   --> A              
     e( 25 - 25) =     12.96471  eV     1   --> A              

 **************************************************************************

 **************************************************************************

                    xk=(   0.09622,   0.05556,  -0.00000  )

     Band symmetry, C_1 (1)     point group:

     e(  1 -  1) =    -13.03343  eV     1   --> A              
     e(  2 -  2) =    -13.03030  eV     1   --> A              
     e(  3 -  3) =     -7.81667  eV     1   --> A              
     e(  4 -  4) =     -7.79144  eV     1   --> A              
     e(  5 -  5) =     -0.45411  eV     1   --> A              
     e(  6 -  6) =      0.16920  eV     1   --> A              
     e(  7 -  7) =      1.15228  eV     1   --> A              
     e(  8 -  8) =      1.24591  eV     1   --> A              
     e(  9 -  9) =      1.58578  eV     1   --> A              
     e( 10 - 10) =      1.66391  eV     1   --> A              
     e( 11 - 11) =      1.66656  eV     1   --> A              
     e( 12 - 12) =      3.09802  eV     1   --> A              
     e( 13 - 13) =      4.08579  eV     1   --> A              
     e( 14 - 14) =      5.03209  eV     1   --> A              
     e( 15 - 15) =      5.13097  eV     1   --> A              
     e( 16 - 16) =      5.54972  eV     1   --> A              
     e( 17 - 17) =      5.55781  eV     1   --> A              
     e( 18 - 18) =      6.09259  eV     1   --> A              
     e( 19 - 19) =      7.71884  eV     1   --> A              
     e( 20 - 20) =      9.80703  eV     1   --> A              
     e( 21 - 21) =     11.70937  eV     1   --> A              
     e( 22 - 22) =     12.37405  eV     1   --> A              
     e( 23 - 23) =     12.57410  eV     1   --> A              
     e( 24 - 24) =     12.75977  eV     1   --> A              
     e( 25 - 25) =     12.78607  eV     1   --> A              

 **************************************************************************

 **************************************************************************

                    xk=(   0.11547,   0.06668,  -0.00000  )

     Band symmetry, C_1 (1)     point group:

     e(  1 -  1) =    -13.01464  eV     1   --> A              
     e(  2 -  2) =    -13.01158  eV     1   --> A              
     e(  3 -  3) =     -7.76757  eV     1   --> A              
     e(  4 -  4) =     -7.74307  eV     1   --> A              
     e(  5 -  5) =     -0.39630  eV     1   --> A              
     e(  6 -  6) =      0.14688  eV     1   --> A              
     e(  7 -  7) =      1.09072  eV     1   --> A              
     e(  8 -  8) =      1.18754  eV     1   --> A              
     e(  9 -  9) =      1.55397  eV     1   --> A              
     e( 10 - 10) =      1.64022  eV     1   --> A              
     e( 11 - 11) =      1.64386  eV     1   --> A              
     e( 12 - 12) =      3.13641  eV     1   --> A              
     e( 13 - 13) =      4.11600  eV     1   --> A              
     e( 14 - 14) =      4.77994  eV     1   --> A              
     e( 15 - 15) =      4.95512  eV     1   --> A              
     e( 16 - 16) =      5.46974  eV     1   --> A              
     e( 17 - 17) =      5.47855  eV     1   --> A              
     e( 18 - 18) =      6.08447  eV     1   --> A              
     e( 19 - 19) =      7.85910  eV     1   --> A              
     e( 20 - 20) =      9.88600  eV     1   --> A              
     e( 21 - 21) =     11.63654  eV     1   --> A              
     e( 22 - 22) =     12.44812  eV     1   --> A              
     e( 23 - 23) =     12.61075  eV     1   --> A              
     e( 24 - 24) =     12.65571  eV     1   --> A              
     e( 25 - 25) =     12.72914  eV     1   --> A              

 **************************************************************************

 **************************************************************************

                    xk=(   0.13471,   0.07779,  -0.00000  )

     Band symmetry, C_1 (1)     point group:

     e(  1 -  1) =    -12.99296  eV     1   --> A              
     e(  2 -  2) =    -12.98998  eV     1   --> A              
     e(  3 -  3) =     -7.71013  eV     1   --> A              
     e(  4 -  4) =     -7.68651  eV     1   --> A              
     e(  5 -  5) =     -0.32843  eV     1   --> A              
     e(  6 -  6) =      0.11258  eV     1   --> A              
     e(  7 -  7) =      0.93003  eV     1   --> A              
     e(  8 -  8) =      1.22784  eV     1   --> A              
     e(  9 -  9) =      1.53183  eV     1   --> A              
     e( 10 - 10) =      1.61154  eV     1   --> A              
     e( 11 - 11) =      1.61781  eV     1   --> A              
     e( 12 - 12) =      3.16035  eV     1   --> A              
     e( 13 - 13) =      4.10153  eV     1   --> A              
     e( 14 - 14) =      4.51265  eV     1   --> A              
     e( 15 - 15) =      4.82661  eV     1   --> A              
     e( 16 - 16) =      5.37439  eV     1   --> A              
     e( 17 - 17) =      5.38435  eV     1   --> A              
     e( 18 - 18) =      6.07197  eV     1   --> A              
     e( 19 - 19) =      8.01695  eV     1   --> A              
     e( 20 - 20) =      9.97010  eV     1   --> A              
     e( 21 - 21) =     11.54833  eV     1   --> A              
     e( 22 - 22) =     12.29632  eV     1   --> A              
     e( 23 - 23) =     12.47603  eV     1   --> A              
     e( 24 - 24) =     12.72348  eV     1   --> A              
     e( 25 - 25) =     12.85749  eV     1   --> A              

 **************************************************************************

 **************************************************************************

                    xk=(   0.15396,   0.08890,  -0.00000  )

     Band symmetry, C_1 (1)     point group:

     e(  1 -  1) =    -12.96865  eV     1   --> A              
     e(  2 -  2) =    -12.96576  eV     1   --> A              
     e(  3 -  3) =     -7.64468  eV     1   --> A              
     e(  4 -  4) =     -7.62205  eV     1   --> A              
     e(  5 -  5) =     -0.25074  eV     1   --> A              
     e(  6 -  6) =      0.06462  eV     1   --> A              
     e(  7 -  7) =      0.76731  eV     1   --> A              
     e(  8 -  8) =      1.27290  eV     1   --> A              
     e(  9 -  9) =      1.52008  eV     1   --> A              
     e( 10 - 10) =      1.57762  eV     1   --> A              
     e( 11 - 11) =      1.59142  eV     1   --> A              
     e( 12 - 12) =      3.16174  eV     1   --> A              
     e( 13 - 13) =      4.01831  eV     1   --> A              
     e( 14 - 14) =      4.23775  eV     1   --> A              
     e( 15 - 15) =      4.78140  eV     1   --> A              
     e( 16 - 16) =      5.26370  eV     1   --> A              
     e( 17 - 17) =      5.27568  eV     1   --> A              
     e( 18 - 18) =      6.05466  eV     1   --> A              
     e( 19 - 19) =      8.18960  eV     1   --> A              
     e( 20 - 20) =     10.05475  eV     1   --> A              
     e( 21 - 21) =     11.44564  eV     1   --> A              
     e( 22 - 22) =     12.07533  eV     1   --> A              
     e( 23 - 23) =     12.34704  eV     1   --> A              
     e( 24 - 24) =     12.80990  eV     1   --> A              
     e( 25 - 25) =     12.96545  eV     1   --> A              

 **************************************************************************

 **************************************************************************

                    xk=(   0.17320,   0.10001,  -0.00000  )

     Band symmetry, C_1 (1)     point group:

     e(  1 -  1) =    -12.94200  eV     1   --> A              
     e(  2 -  2) =    -12.93920  eV     1   --> A              
     e(  3 -  3) =     -7.57162  eV     1   --> A              
     e(  4 -  4) =     -7.55009  eV     1   --> A              
     e(  5 -  5) =     -0.16358  eV     1   --> A              
     e(  6 -  6) =      0.00290  eV     1   --> A              
     e(  7 -  7) =      0.60536  eV     1   --> A              
     e(  8 -  8) =      1.32231  eV     1   --> A              
     e(  9 -  9) =      1.50866  eV     1   --> A              
     e( 10 - 10) =      1.53815  eV     1   --> A              
     e( 11 - 11) =      1.57609  eV     1   --> A              
     e( 12 - 12) =      3.12611  eV     1   --> A              
     e( 13 - 13) =      3.89259  eV     1   --> A              
     e( 14 - 14) =      3.96202  eV     1   --> A              
     e( 15 - 15) =      4.80966  eV     1   --> A              
     e( 16 - 16) =      5.13796  eV     1   --> A              
     e( 17 - 17) =      5.15445  eV     1   --> A              
     e( 18 - 18) =      6.03226  eV     1   --> A              
     e( 19 - 19) =      8.37437  eV     1   --> A              
     e( 20 - 20) =     10.13434  eV     1   --> A              
     e( 21 - 21) =     11.33022  eV     1   --> A              
     e( 22 - 22) =     11.84048  eV     1   --> A              
     e( 23 - 23) =     12.22905  eV     1   --> A              
     e( 24 - 24) =     12.74021  eV     1   --> A              
     e( 25 - 25) =     13.03389  eV     1   --> A              

 **************************************************************************

 **************************************************************************

                    xk=(   0.19245,   0.11113,  -0.00000  )

     Band symmetry, C_1 (1)     point group:

     e(  1 -  1) =    -12.91333  eV     1   --> A              
     e(  2 -  2) =    -12.91062  eV     1   --> A              
     e(  3 -  3) =     -7.49139  eV     1   --> A              
     e(  4 -  4) =     -7.47107  eV     1   --> A              
     e(  5 -  5) =     -0.07092  eV     1   --> A              
     e(  6 -  6) =     -0.06733  eV     1   --> A              
     e(  7 -  7) =      0.44643  eV     1   --> A              
     e(  8 -  8) =      1.37217  eV     1   --> A              
     e(  9 -  9) =      1.48525  eV     1   --> A              
     e( 10 - 10) =      1.49296  eV     1   --> A              
     e( 11 - 11) =      1.58622  eV     1   --> A              
     e( 12 - 12) =      3.03444  eV     1   --> A              
     e( 13 - 13) =      3.69169  eV     1   --> A              
     e( 14 - 14) =      3.77939  eV     1   --> A              
     e( 15 - 15) =      4.86735  eV     1   --> A              
     e( 16 - 16) =      4.99779  eV     1   --> A              
     e( 17 - 17) =      5.03250  eV     1   --> A              
     e( 18 - 18) =      6.00464  eV     1   --> A              
     e( 19 - 19) =      8.56873  eV     1   --> A              
     e( 20 - 20) =     10.20212  eV     1   --> A              
     e( 21 - 21) =     11.20463  eV     1   --> A              
     e( 22 - 22) =     11.60035  eV     1   --> A              
     e( 23 - 23) =     12.12232  eV     1   --> A              
     e( 24 - 24) =     12.58939  eV     1   --> A              
     e( 25 - 25) =     13.01394  eV     1   --> A              

 **************************************************************************

 **************************************************************************

                    xk=(   0.21169,   0.12224,  -0.00000  )

     Band symmetry, C_1 (1)     point group:

     e(  1 -  1) =    -12.88299  eV     1   --> A              
     e(  2 -  2) =    -12.88039  eV     1   --> A              
     e(  3 -  3) =     -7.40454  eV     1   --> A              
     e(  4 -  4) =     -7.38551  eV     1   --> A              
     e(  5 -  5) =     -0.15398  eV     1   --> A              
     e(  6 -  6) =      0.03740  eV     1   --> A              
     e(  7 -  7) =      0.29244  eV     1   --> A              
     e(  8 -  8) =      1.39005  eV     1   --> A              
     e(  9 -  9) =      1.44168  eV     1   --> A              
     e( 10 - 10) =      1.48698  eV     1   --> A              
     e( 11 - 11) =      1.61250  eV     1   --> A              
     e( 12 - 12) =      2.88034  eV     1   --> A              
     e( 13 - 13) =      3.43384  eV     1   --> A              
     e( 14 - 14) =      3.70918  eV     1   --> A              
     e( 15 - 15) =      4.82511  eV     1   --> A              
     e( 16 - 16) =      4.84416  eV     1   --> A              
     e( 17 - 17) =      5.01816  eV     1   --> A              
     e( 18 - 18) =      5.97185  eV     1   --> A              
     e( 19 - 19) =      8.77022  eV     1   --> A              
     e( 20 - 20) =     10.25034  eV     1   --> A              
     e( 21 - 21) =     11.07184  eV     1   --> A              
     e( 22 - 22) =     11.35918  eV     1   --> A              
     e( 23 - 23) =     12.02354  eV     1   --> A              
     e( 24 - 24) =     12.43867  eV     1   --> A              
     e( 25 - 25) =     12.89963  eV     1   --> A              

 **************************************************************************

 **************************************************************************

                    xk=(   0.23094,   0.13335,  -0.00000  )

     Band symmetry, C_1 (1)     point group:

     e(  1 -  1) =    -12.85138  eV     1   --> A              
     e(  2 -  2) =    -12.84887  eV     1   --> A              
     e(  3 -  3) =     -7.31170  eV     1   --> A              
     e(  4 -  4) =     -7.29405  eV     1   --> A              
     e(  5 -  5) =     -0.24279  eV     1   --> A              
     e(  6 -  6) =      0.14337  eV     1   --> A              
     e(  7 -  7) =      0.15158  eV     1   --> A              
     e(  8 -  8) =      1.34891  eV     1   --> A              
     e(  9 -  9) =      1.38446  eV     1   --> A              
     e( 10 - 10) =      1.54644  eV     1   --> A              
     e( 11 - 11) =      1.64137  eV     1   --> A              
     e( 12 - 12) =      2.68119  eV     1   --> A              
     e( 13 - 13) =      3.19651  eV     1   --> A              
     e( 14 - 14) =      3.67744  eV     1   --> A              
     e( 15 - 15) =      4.67325  eV     1   --> A              
     e( 16 - 16) =      4.67873  eV     1   --> A              
     e( 17 - 17) =      5.11114  eV     1   --> A              
     e( 18 - 18) =      5.93409  eV     1   --> A              
     e( 19 - 19) =      8.97634  eV     1   --> A              
     e( 20 - 20) =     10.27090  eV     1   --> A              
     e( 21 - 21) =     10.93496  eV     1   --> A              
     e( 22 - 22) =     11.12053  eV     1   --> A              
     e( 23 - 23) =     11.92555  eV     1   --> A              
     e( 24 - 24) =     12.29454  eV     1   --> A              
     e( 25 - 25) =     12.76942  eV     1   --> A              

 **************************************************************************

 **************************************************************************

                    xk=(   0.25018,   0.14446,  -0.00000  )

     Band symmetry, C_1 (1)     point group:

     e(  1 -  1) =    -12.81888  eV     1   --> A              
     e(  2 -  2) =    -12.81647  eV     1   --> A              
     e(  3 -  3) =     -7.21360  eV     1   --> A              
     e(  4 -  4) =     -7.19739  eV     1   --> A              
     e(  5 -  5) =     -0.33381  eV     1   --> A              
     e(  6 -  6) =      0.00553  eV     1   --> A              
     e(  7 -  7) =      0.26925  eV     1   --> A              
     e(  8 -  8) =      1.28701  eV     1   --> A              
     e(  9 -  9) =      1.32132  eV     1   --> A              
     e( 10 - 10) =      1.62519  eV     1   --> A              
     e( 11 - 11) =      1.66186  eV     1   --> A              
     e( 12 - 12) =      2.46048  eV     1   --> A              
     e( 13 - 13) =      2.99054  eV     1   --> A              
     e( 14 - 14) =      3.66787  eV     1   --> A              
     e( 15 - 15) =      4.49861  eV     1   --> A              
     e( 16 - 16) =      4.50369  eV     1   --> A              
     e( 17 - 17) =      5.21975  eV     1   --> A              
     e( 18 - 18) =      5.89187  eV     1   --> A              
     e( 19 - 19) =      9.18396  eV     1   --> A              
     e( 20 - 20) =     10.25676  eV     1   --> A              
     e( 21 - 21) =     10.79689  eV     1   --> A              
     e( 22 - 22) =     10.88817  eV     1   --> A              
     e( 23 - 23) =     11.82007  eV     1   --> A              
     e( 24 - 24) =     12.15470  eV     1   --> A              
     e( 25 - 25) =     12.67593  eV     1   --> A              

 **************************************************************************

 **************************************************************************

                    xk=(   0.26943,   0.15558,  -0.00000  )

     Band symmetry, C_1 (1)     point group:

     e(  1 -  1) =    -12.78590  eV     1   --> A              
     e(  2 -  2) =    -12.78358  eV     1   --> A              
     e(  3 -  3) =     -7.11109  eV     1   --> A              
     e(  4 -  4) =     -7.09637  eV     1   --> A              
     e(  5 -  5) =     -0.42376  eV     1   --> A              
     e(  6 -  6) =     -0.12451  eV     1   --> A              
     e(  7 -  7) =      0.39340  eV     1   --> A              
     e(  8 -  8) =      1.21445  eV     1   --> A              
     e(  9 -  9) =      1.25286  eV     1   --> A              
     e( 10 - 10) =      1.65194  eV     1   --> A              
     e( 11 - 11) =      1.72039  eV     1   --> A              
     e( 12 - 12) =      2.23478  eV     1   --> A              
     e( 13 - 13) =      2.82975  eV     1   --> A              
     e( 14 - 14) =      3.66857  eV     1   --> A              
     e( 15 - 15) =      4.31252  eV     1   --> A              
     e( 16 - 16) =      4.31984  eV     1   --> A              
     e( 17 - 17) =      5.33196  eV     1   --> A              
     e( 18 - 18) =      5.84596  eV     1   --> A              
     e( 19 - 19) =      9.38818  eV     1   --> A              
     e( 20 - 20) =     10.20371  eV     1   --> A              
     e( 21 - 21) =     10.66022  eV     1   --> A              
     e( 22 - 22) =     10.66748  eV     1   --> A              
     e( 23 - 23) =     11.70483  eV     1   --> A              
     e( 24 - 24) =     12.01626  eV     1   --> A              
     e( 25 - 25) =     12.63790  eV     1   --> A              

 **************************************************************************

 **************************************************************************

                    xk=(   0.28867,   0.16669,  -0.00000  )

     Band symmetry, C_1 (1)     point group:

     e(  1 -  1) =    -12.75287  eV     1   --> A              
     e(  2 -  2) =    -12.75064  eV     1   --> A              
     e(  3 -  3) =     -7.00514  eV     1   --> A              
     e(  4 -  4) =     -6.99192  eV     1   --> A              
     e(  5 -  5) =     -0.50983  eV     1   --> A              
     e(  6 -  6) =     -0.24423  eV     1   --> A              
     e(  7 -  7) =      0.51919  eV     1   --> A              
     e(  8 -  8) =      1.13281  eV     1   --> A              
     e(  9 -  9) =      1.18084  eV     1   --> A              
     e( 10 - 10) =      1.61063  eV     1   --> A              
     e( 11 - 11) =      1.81706  eV     1   --> A              
     e( 12 - 12) =      2.01458  eV     1   --> A              
     e( 13 - 13) =      2.72725  eV     1   --> A              
     e( 14 - 14) =      3.67235  eV     1   --> A              
     e( 15 - 15) =      4.11852  eV     1   --> A              
     e( 16 - 16) =      4.12917  eV     1   --> A              
     e( 17 - 17) =      5.44385  eV     1   --> A              
     e( 18 - 18) =      5.79749  eV     1   --> A              
     e( 19 - 19) =      9.57773  eV     1   --> A              
     e( 20 - 20) =     10.11154  eV     1   --> A              
     e( 21 - 21) =     10.46974  eV     1   --> A              
     e( 22 - 22) =     10.52760  eV     1   --> A              
     e( 23 - 23) =     11.58679  eV     1   --> A              
     e( 24 - 24) =     11.87832  eV     1   --> A              
     e( 25 - 25) =     12.59725  eV     1   --> A              

 **************************************************************************

 **************************************************************************

                    xk=(   0.30791,   0.17780,  -0.00000  )

     Band symmetry, C_1 (1)     point group:

     e(  1 -  1) =    -12.72022  eV     1   --> A              
     e(  2 -  2) =    -12.71805  eV     1   --> A              
     e(  3 -  3) =     -6.89686  eV     1   --> A              
     e(  4 -  4) =     -6.88513  eV     1   --> A              
     e(  5 -  5) =     -0.58960  eV     1   --> A              
     e(  6 -  6) =     -0.35260  eV     1   --> A              
     e(  7 -  7) =      0.63893  eV     1   --> A              
     e(  8 -  8) =      1.04256  eV     1   --> A              
     e(  9 -  9) =      1.11066  eV     1   --> A              
     e( 10 - 10) =      1.52865  eV     1   --> A              
     e( 11 - 11) =      1.80756  eV     1   --> A              
     e( 12 - 12) =      1.91936  eV     1   --> A              
     e( 13 - 13) =      2.68616  eV     1   --> A              
     e( 14 - 14) =      3.67309  eV     1   --> A              
     e( 15 - 15) =      3.91881  eV     1   --> A              
     e( 16 - 16) =      3.93610  eV     1   --> A              
     e( 17 - 17) =      5.55288  eV     1   --> A              
     e( 18 - 18) =      5.74803  eV     1   --> A              
     e( 19 - 19) =      9.71839  eV     1   --> A              
     e( 20 - 20) =      9.98379  eV     1   --> A              
     e( 21 - 21) =     10.32896  eV     1   --> A              
     e( 22 - 22) =     10.40218  eV     1   --> A              
     e( 23 - 23) =     11.47593  eV     1   --> A              
     e( 24 - 24) =     11.74257  eV     1   --> A              
     e( 25 - 25) =     12.50663  eV     1   --> A              

 **************************************************************************

 **************************************************************************

                    xk=(   0.32716,   0.18891,  -0.00000  )

     Band symmetry, C_1 (1)     point group:

     e(  1 -  1) =    -12.68835  eV     1   --> A              
     e(  2 -  2) =    -12.68625  eV     1   --> A              
     e(  3 -  3) =     -6.78748  eV     1   --> A              
     e(  4 -  4) =     -6.77720  eV     1   --> A              
     e(  5 -  5) =     -0.66108  eV     1   --> A              
     e(  6 -  6) =     -0.44880  eV     1   --> A              
     e(  7 -  7) =      0.73070  eV     1   --> A              
     e(  8 -  8) =      0.94426  eV     1   --> A              
     e(  9 -  9) =      1.05972  eV     1   --> A              
     e( 10 - 10) =      1.41727  eV     1   --> A              
     e( 11 - 11) =      1.62187  eV     1   --> A              
     e( 12 - 12) =      2.02462  eV     1   --> A              
     e( 13 - 13) =      2.69545  eV     1   --> A              
     e( 14 - 14) =      3.64712  eV     1   --> A              
     e( 15 - 15) =      3.71555  eV     1   --> A              
     e( 16 - 16) =      3.76404  eV     1   --> A              
     e( 17 - 17) =      5.65692  eV     1   --> A              
     e( 18 - 18) =      5.69965  eV     1   --> A              
     e( 19 - 19) =      9.73145  eV     1   --> A              
     e( 20 - 20) =      9.82667  eV     1   --> A              
     e( 21 - 21) =     10.28789  eV     1   --> A              
     e( 22 - 22) =     10.32297  eV     1   --> A              
     e( 23 - 23) =     11.37898  eV     1   --> A              
     e( 24 - 24) =     11.61215  eV     1   --> A              
     e( 25 - 25) =     12.43182  eV     1   --> A              

 **************************************************************************

 **************************************************************************

                    xk=(   0.34640,   0.20003,  -0.00000  )

     Band symmetry, C_1 (1)     point group:

     e(  1 -  1) =    -12.65766  eV     1   --> A              
     e(  2 -  2) =    -12.65562  eV     1   --> A              
     e(  3 -  3) =     -6.67840  eV     1   --> A              
     e(  4 -  4) =     -6.66949  eV     1   --> A              
     e(  5 -  5) =     -0.72262  eV     1   --> A              
     e(  6 -  6) =     -0.53222  eV     1   --> A              
     e(  7 -  7) =      0.74859  eV     1   --> A              
     e(  8 -  8) =      0.83926  eV     1   --> A              
     e(  9 -  9) =      1.06038  eV     1   --> A              
     e( 10 - 10) =      1.29231  eV     1   --> A              
     e( 11 - 11) =      1.47349  eV     1   --> A              
     e( 12 - 12) =      2.13052  eV     1   --> A              
     e( 13 - 13) =      2.73793  eV     1   --> A              
     e( 14 - 14) =      3.49911  eV     1   --> A              
     e( 15 - 15) =      3.51112  eV     1   --> A              
     e( 16 - 16) =      3.70865  eV     1   --> A              
     e( 17 - 17) =      5.65489  eV     1   --> A              
     e( 18 - 18) =      5.75404  eV     1   --> A              
     e( 19 - 19) =      9.61541  eV     1   --> A              
     e( 20 - 20) =      9.64797  eV     1   --> A              
     e( 21 - 21) =     10.18842  eV     1   --> A              
     e( 22 - 22) =     10.45143  eV     1   --> A              
     e( 23 - 23) =     11.29868  eV     1   --> A              
     e( 24 - 24) =     11.49056  eV     1   --> A              
     e( 25 - 25) =     12.36775  eV     1   --> A              

 **************************************************************************

 **************************************************************************

                    xk=(   0.36565,   0.21114,  -0.00000  )

     Band symmetry, C_1 (1)     point group:

     e(  1 -  1) =    -12.62853  eV     1   --> A              
     e(  2 -  2) =    -12.62654  eV     1   --> A              
     e(  3 -  3) =     -6.57111  eV     1   --> A              
     e(  4 -  4) =     -6.56346  eV     1   --> A              
     e(  5 -  5) =     -0.77288  eV     1   --> A              
     e(  6 -  6) =     -0.60233  eV     1   --> A              
     e(  7 -  7) =      0.69128  eV     1   --> A              
     e(  8 -  8) =      0.73013  eV     1   --> A              
     e(  9 -  9) =      1.06873  eV     1   --> A              
     e( 10 - 10) =      1.16589  eV     1   --> A              
     e( 11 - 11) =      1.40966  eV     1   --> A              
     e( 12 - 12) =      2.23421  eV     1   --> A              
     e( 13 - 13) =      2.79848  eV     1   --> A              
     e( 14 - 14) =      3.30211  eV     1   --> A              
     e( 15 - 15) =      3.30819  eV     1   --> A              
     e( 16 - 16) =      3.69792  eV     1   --> A              
     e( 17 - 17) =      5.61688  eV     1   --> A              
     e( 18 - 18) =      5.84234  eV     1   --> A              
     e( 19 - 19) =      9.45335  eV     1   --> A              
     e( 20 - 20) =      9.45611  eV     1   --> A              
     e( 21 - 21) =     10.10663  eV     1   --> A              
     e( 22 - 22) =     10.62700  eV     1   --> A              
     e( 23 - 23) =     11.23555  eV     1   --> A              
     e( 24 - 24) =     11.38179  eV     1   --> A              
     e( 25 - 25) =     12.31123  eV     1   --> A              

 **************************************************************************

 **************************************************************************

                    xk=(   0.38489,   0.22225,  -0.00000  )

     Band symmetry, C_1 (1)     point group:

     e(  1 -  1) =    -12.60130  eV     1   --> A              
     e(  2 -  2) =    -12.59935  eV     1   --> A              
     e(  3 -  3) =     -6.46725  eV     1   --> A              
     e(  4 -  4) =     -6.46069  eV     1   --> A              
     e(  5 -  5) =     -0.81089  eV     1   --> A              
     e(  6 -  6) =     -0.65879  eV     1   --> A              
     e(  7 -  7) =      0.60388  eV     1   --> A              
     e(  8 -  8) =      0.62053  eV     1   --> A              
     e(  9 -  9) =      1.00177  eV     1   --> A              
     e( 10 - 10) =      1.04479  eV     1   --> A              
     e( 11 - 11) =      1.46968  eV     1   --> A              
     e( 12 - 12) =      2.33129  eV     1   --> A              
     e( 13 - 13) =      2.86583  eV     1   --> A              
     e( 14 - 14) =      3.10199  eV     1   --> A              
     e( 15 - 15) =      3.11023  eV     1   --> A              
     e( 16 - 16) =      3.68812  eV     1   --> A              
     e( 17 - 17) =      5.58904  eV     1   --> A              
     e( 18 - 18) =      5.92027  eV     1   --> A              
     e( 19 - 19) =      9.25720  eV     1   --> A              
     e( 20 - 20) =      9.28388  eV     1   --> A              
     e( 21 - 21) =     10.04455  eV     1   --> A              
     e( 22 - 22) =     10.80214  eV     1   --> A              
     e( 23 - 23) =     11.18946  eV     1   --> A              
     e( 24 - 24) =     11.29360  eV     1   --> A              
     e( 25 - 25) =     12.26201  eV     1   --> A              

 **************************************************************************

 **************************************************************************

                    xk=(   0.40414,   0.23336,  -0.00000  )

     Band symmetry, C_1 (1)     point group:

     e(  1 -  1) =    -12.57627  eV     1   --> A              
     e(  2 -  2) =    -12.57435  eV     1   --> A              
     e(  3 -  3) =     -6.36848  eV     1   --> A              
     e(  4 -  4) =     -6.36284  eV     1   --> A              
     e(  5 -  5) =     -0.83594  eV     1   --> A              
     e(  6 -  6) =     -0.70147  eV     1   --> A              
     e(  7 -  7) =      0.50904  eV     1   --> A              
     e(  8 -  8) =      0.51452  eV     1   --> A              
     e(  9 -  9) =      0.89965  eV     1   --> A              
     e( 10 - 10) =      0.93226  eV     1   --> A              
     e( 11 - 11) =      1.59165  eV     1   --> A              
     e( 12 - 12) =      2.41183  eV     1   --> A              
     e( 13 - 13) =      2.90392  eV     1   --> A              
     e( 14 - 14) =      2.91435  eV     1   --> A              
     e( 15 - 15) =      2.94527  eV     1   --> A              
     e( 16 - 16) =      3.67477  eV     1   --> A              
     e( 17 - 17) =      5.57491  eV     1   --> A              
     e( 18 - 18) =      5.98661  eV     1   --> A              
     e( 19 - 19) =      9.05847  eV     1   --> A              
     e( 20 - 20) =      9.11750  eV     1   --> A              
     e( 21 - 21) =     10.00339  eV     1   --> A              
     e( 22 - 22) =     10.93306  eV     1   --> A              
     e( 23 - 23) =     11.16034  eV     1   --> A              
     e( 24 - 24) =     11.25258  eV     1   --> A              
     e( 25 - 25) =     12.22380  eV     1   --> A              

 **************************************************************************

 **************************************************************************

                    xk=(   0.42338,   0.24448,  -0.00000  )

     Band symmetry, C_1 (1)     point group:

     e(  1 -  1) =    -12.55369  eV     1   --> A              
     e(  2 -  2) =    -12.55179  eV     1   --> A              
     e(  3 -  3) =     -6.27651  eV     1   --> A              
     e(  4 -  4) =     -6.27156  eV     1   --> A              
     e(  5 -  5) =     -0.84761  eV     1   --> A              
     e(  6 -  6) =     -0.73035  eV     1   --> A              
     e(  7 -  7) =      0.41399  eV     1   --> A              
     e(  8 -  8) =      0.41658  eV     1   --> A              
     e(  9 -  9) =      0.79844  eV     1   --> A              
     e( 10 - 10) =      0.83044  eV     1   --> A              
     e( 11 - 11) =      1.73104  eV     1   --> A              
     e( 12 - 12) =      2.44436  eV     1   --> A              
     e( 13 - 13) =      2.71107  eV     1   --> A              
     e( 14 - 14) =      2.78628  eV     1   --> A              
     e( 15 - 15) =      2.99624  eV     1   --> A              
     e( 16 - 16) =      3.65691  eV     1   --> A              
     e( 17 - 17) =      5.57766  eV     1   --> A              
     e( 18 - 18) =      6.04066  eV     1   --> A              
     e( 19 - 19) =      8.86440  eV     1   --> A              
     e( 20 - 20) =      8.95951  eV     1   --> A              
     e( 21 - 21) =      9.98340  eV     1   --> A              
     e( 22 - 22) =     10.95684  eV     1   --> A              
     e( 23 - 23) =     11.14842  eV     1   --> A              
     e( 24 - 24) =     11.30719  eV     1   --> A              
     e( 25 - 25) =     12.20494  eV     1   --> A              

 **************************************************************************

 **************************************************************************

                    xk=(   0.44263,   0.25559,  -0.00000  )

     Band symmetry, C_1 (1)     point group:

     e(  1 -  1) =    -12.53375  eV     1   --> A              
     e(  2 -  2) =    -12.53187  eV     1   --> A              
     e(  3 -  3) =     -6.19293  eV     1   --> A              
     e(  4 -  4) =     -6.18847  eV     1   --> A              
     e(  5 -  5) =     -0.84594  eV     1   --> A              
     e(  6 -  6) =     -0.74559  eV     1   --> A              
     e(  7 -  7) =      0.32280  eV     1   --> A              
     e(  8 -  8) =      0.32686  eV     1   --> A              
     e(  9 -  9) =      0.71000  eV     1   --> A              
     e( 10 - 10) =      0.74202  eV     1   --> A              
     e( 11 - 11) =      1.87157  eV     1   --> A              
     e( 12 - 12) =      2.37020  eV     1   --> A              
     e( 13 - 13) =      2.52702  eV     1   --> A              
     e( 14 - 14) =      2.75052  eV     1   --> A              
     e( 15 - 15) =      3.04875  eV     1   --> A              
     e( 16 - 16) =      3.63434  eV     1   --> A              
     e( 17 - 17) =      5.59936  eV     1   --> A              
     e( 18 - 18) =      6.08226  eV     1   --> A              
     e( 19 - 19) =      8.67921  eV     1   --> A              
     e( 20 - 20) =      8.81281  eV     1   --> A              
     e( 21 - 21) =      9.98370  eV     1   --> A              
     e( 22 - 22) =     10.90532  eV     1   --> A              
     e( 23 - 23) =     11.15420  eV     1   --> A              
     e( 24 - 24) =     11.40976  eV     1   --> A              
     e( 25 - 25) =     12.21648  eV     1   --> A              

 **************************************************************************

 **************************************************************************

                    xk=(   0.46187,   0.26670,  -0.00000  )

     Band symmetry, C_1 (1)     point group:

     e(  1 -  1) =    -12.51659  eV     1   --> A              
     e(  2 -  2) =    -12.51473  eV     1   --> A              
     e(  3 -  3) =     -6.11917  eV     1   --> A              
     e(  4 -  4) =     -6.11502  eV     1   --> A              
     e(  5 -  5) =     -0.83129  eV     1   --> A              
     e(  6 -  6) =     -0.74756  eV     1   --> A              
     e(  7 -  7) =      0.23835  eV     1   --> A              
     e(  8 -  8) =      0.24093  eV     1   --> A              
     e(  9 -  9) =      0.64109  eV     1   --> A              
     e( 10 - 10) =      0.67085  eV     1   --> A              
     e( 11 - 11) =      1.99868  eV     1   --> A              
     e( 12 - 12) =      2.22173  eV     1   --> A              
     e( 13 - 13) =      2.36204  eV     1   --> A              
     e( 14 - 14) =      2.78093  eV     1   --> A              
     e( 15 - 15) =      3.09406  eV     1   --> A              
     e( 16 - 16) =      3.60720  eV     1   --> A              
     e( 17 - 17) =      5.64037  eV     1   --> A              
     e( 18 - 18) =      6.11175  eV     1   --> A              
     e( 19 - 19) =      8.50675  eV     1   --> A              
     e( 20 - 20) =      8.67977  eV     1   --> A              
     e( 21 - 21) =     10.00225  eV     1   --> A              
     e( 22 - 22) =     10.83127  eV     1   --> A              
     e( 23 - 23) =     11.17829  eV     1   --> A              
     e( 24 - 24) =     11.49612  eV     1   --> A              
     e( 25 - 25) =     12.22164  eV     1   --> A              

 **************************************************************************

 **************************************************************************

                    xk=(   0.48112,   0.27781,  -0.00000  )

     Band symmetry, C_1 (1)     point group:

     e(  1 -  1) =    -12.50228  eV     1   --> A              
     e(  2 -  2) =    -12.50043  eV     1   --> A              
     e(  3 -  3) =     -6.05639  eV     1   --> A              
     e(  4 -  4) =     -6.05242  eV     1   --> A              
     e(  5 -  5) =     -0.80453  eV     1   --> A              
     e(  6 -  6) =     -0.73698  eV     1   --> A              
     e(  7 -  7) =      0.15481  eV     1   --> A              
     e(  8 -  8) =      0.15994  eV     1   --> A              
     e(  9 -  9) =      0.59689  eV     1   --> A              
     e( 10 - 10) =      0.62154  eV     1   --> A              
     e( 11 - 11) =      2.05298  eV     1   --> A              
     e( 12 - 12) =      2.05796  eV     1   --> A              
     e( 13 - 13) =      2.27309  eV     1   --> A              
     e( 14 - 14) =      2.81521  eV     1   --> A              
     e( 15 - 15) =      3.13622  eV     1   --> A              
     e( 16 - 16) =      3.57582  eV     1   --> A              
     e( 17 - 17) =      5.69877  eV     1   --> A              
     e( 18 - 18) =      6.12971  eV     1   --> A              
     e( 19 - 19) =      8.35087  eV     1   --> A              
     e( 20 - 20) =      8.56280  eV     1   --> A              
     e( 21 - 21) =     10.03594  eV     1   --> A              
     e( 22 - 22) =     10.74797  eV     1   --> A              
     e( 23 - 23) =     11.22119  eV     1   --> A              
     e( 24 - 24) =     11.55651  eV     1   --> A              
     e( 25 - 25) =     12.13112  eV     1   --> A              

 **************************************************************************

 **************************************************************************

                    xk=(   0.50036,   0.28893,  -0.00000  )

     Band symmetry, C_1 (1)     point group:

     e(  1 -  1) =    -12.49083  eV     1   --> A              
     e(  2 -  2) =    -12.48899  eV     1   --> A              
     e(  3 -  3) =     -6.00536  eV     1   --> A              
     e(  4 -  4) =     -6.00150  eV     1   --> A              
     e(  5 -  5) =     -0.76725  eV     1   --> A              
     e(  6 -  6) =     -0.71499  eV     1   --> A              
     e(  7 -  7) =      0.06931  eV     1   --> A              
     e(  8 -  8) =      0.08341  eV     1   --> A              
     e(  9 -  9) =      0.57954  eV     1   --> A              
     e( 10 - 10) =      0.59753  eV     1   --> A              
     e( 11 - 11) =      1.89684  eV     1   --> A              
     e( 12 - 12) =      1.95868  eV     1   --> A              
     e( 13 - 13) =      2.33773  eV     1   --> A              
     e( 14 - 14) =      2.83099  eV     1   --> A              
     e( 15 - 15) =      3.18044  eV     1   --> A              
     e( 16 - 16) =      3.54068  eV     1   --> A              
     e( 17 - 17) =      5.77025  eV     1   --> A              
     e( 18 - 18) =      6.13663  eV     1   --> A              
     e( 19 - 19) =      8.21554  eV     1   --> A              
     e( 20 - 20) =      8.46445  eV     1   --> A              
     e( 21 - 21) =     10.08108  eV     1   --> A              
     e( 22 - 22) =     10.65845  eV     1   --> A              
     e( 23 - 23) =     11.28277  eV     1   --> A              
     e( 24 - 24) =     11.60454  eV     1   --> A              
     e( 25 - 25) =     12.04563  eV     1   --> A              

 **************************************************************************

 **************************************************************************

                    xk=(   0.51961,   0.30004,  -0.00000  )

     Band symmetry, C_1 (1)     point group:

     e(  1 -  1) =    -12.48220  eV     1   --> A              
     e(  2 -  2) =    -12.48037  eV     1   --> A              
     e(  3 -  3) =     -5.96646  eV     1   --> A              
     e(  4 -  4) =     -5.96265  eV     1   --> A              
     e(  5 -  5) =     -0.72225  eV     1   --> A              
     e(  6 -  6) =     -0.68396  eV     1   --> A              
     e(  7 -  7) =     -0.01470  eV     1   --> A              
     e(  8 -  8) =      0.00999  eV     1   --> A              
     e(  9 -  9) =      0.58654  eV     1   --> A              
     e( 10 - 10) =      0.59853  eV     1   --> A              
     e( 11 - 11) =      1.74970  eV     1   --> A              
     e( 12 - 12) =      1.83106  eV     1   --> A              
     e( 13 - 13) =      2.44035  eV     1   --> A              
     e( 14 - 14) =      2.82282  eV     1   --> A              
     e( 15 - 15) =      3.22877  eV     1   --> A              
     e( 16 - 16) =      3.50239  eV     1   --> A              
     e( 17 - 17) =      5.84851  eV     1   --> A              
     e( 18 - 18) =      6.13259  eV     1   --> A              
     e( 19 - 19) =      8.10493  eV     1   --> A              
     e( 20 - 20) =      8.38731  eV     1   --> A              
     e( 21 - 21) =     10.13394  eV     1   --> A              
     e( 22 - 22) =     10.56515  eV     1   --> A              
     e( 23 - 23) =     11.36134  eV     1   --> A              
     e( 24 - 24) =     11.65529  eV     1   --> A              
     e( 25 - 25) =     11.96514  eV     1   --> A              

 **************************************************************************

 **************************************************************************

                    xk=(   0.53885,   0.31115,  -0.00000  )

     Band symmetry, C_1 (1)     point group:

     e(  1 -  1) =    -12.47626  eV     1   --> A              
     e(  2 -  2) =    -12.47443  eV     1   --> A              
     e(  3 -  3) =     -5.93959  eV     1   --> A              
     e(  4 -  4) =     -5.93580  eV     1   --> A              
     e(  5 -  5) =     -0.67438  eV     1   --> A              
     e(  6 -  6) =     -0.64860  eV     1   --> A              
     e(  7 -  7) =     -0.09136  eV     1   --> A              
     e(  8 -  8) =     -0.05634  eV     1   --> A              
     e(  9 -  9) =      0.61034  eV     1   --> A              
     e( 10 - 10) =      0.61850  eV     1   --> A              
     e( 11 - 11) =      1.62504  eV     1   --> A              
     e( 12 - 12) =      1.71921  eV     1   --> A              
     e( 13 - 13) =      2.53754  eV     1   --> A              
     e( 14 - 14) =      2.79327  eV     1   --> A              
     e( 15 - 15) =      3.27933  eV     1   --> A              
     e( 16 - 16) =      3.46162  eV     1   --> A              
     e( 17 - 17) =      5.92606  eV     1   --> A              
     e( 18 - 18) =      6.11718  eV     1   --> A              
     e( 19 - 19) =      8.02301  eV     1   --> A              
     e( 20 - 20) =      8.33346  eV     1   --> A              
     e( 21 - 21) =     10.19137  eV     1   --> A              
     e( 22 - 22) =     10.47213  eV     1   --> A              
     e( 23 - 23) =     11.45173  eV     1   --> A              
     e( 24 - 24) =     11.71684  eV     1   --> A              
     e( 25 - 25) =     11.89132  eV     1   --> A              

 **************************************************************************

 **************************************************************************

                    xk=(   0.55810,   0.32227,  -0.00000  )

     Band symmetry, C_1 (1)     point group:

     e(  1 -  1) =    -12.47285  eV     1   --> A              
     e(  2 -  2) =    -12.47103  eV     1   --> A              
     e(  3 -  3) =     -5.92419  eV     1   --> A              
     e(  4 -  4) =     -5.92042  eV     1   --> A              
     e(  5 -  5) =     -0.63248  eV     1   --> A              
     e(  6 -  6) =     -0.61862  eV     1   --> A              
     e(  7 -  7) =     -0.14976  eV     1   --> A              
     e(  8 -  8) =     -0.10658  eV     1   --> A              
     e(  9 -  9) =      0.63815  eV     1   --> A              
     e( 10 - 10) =      0.64410  eV     1   --> A              
     e( 11 - 11) =      1.53644  eV     1   --> A              
     e( 12 - 12) =      1.64039  eV     1   --> A              
     e( 13 - 13) =      2.62165  eV     1   --> A              
     e( 14 - 14) =      2.74752  eV     1   --> A              
     e( 15 - 15) =      3.32898  eV     1   --> A              
     e( 16 - 16) =      3.41904  eV     1   --> A              
     e( 17 - 17) =      5.99530  eV     1   --> A              
     e( 18 - 18) =      6.08975  eV     1   --> A              
     e( 19 - 19) =      7.97301  eV     1   --> A              
     e( 20 - 20) =      8.30340  eV     1   --> A              
     e( 21 - 21) =     10.25129  eV     1   --> A              
     e( 22 - 22) =     10.38539  eV     1   --> A              
     e( 23 - 23) =     11.53907  eV     1   --> A              
     e( 24 - 24) =     11.78680  eV     1   --> A              
     e( 25 - 25) =     11.83269  eV     1   --> A              

 **************************************************************************

 **************************************************************************

                    xk=(   0.57734,   0.33338,  -0.00000  )

     Band symmetry, C_1 (1)     point group:

     e(  1 -  1) =    -12.47177  eV     1   --> A              
     e(  2 -  2) =    -12.46995  eV     1   --> A              
     e(  3 -  3) =     -5.91931  eV     1   --> A              
     e(  4 -  4) =     -5.91555  eV     1   --> A              
     e(  5 -  5) =     -0.61103  eV     1   --> A              
     e(  6 -  6) =     -0.60928  eV     1   --> A              
     e(  7 -  7) =     -0.17292  eV     1   --> A              
     e(  8 -  8) =     -0.12659  eV     1   --> A              
     e(  9 -  9) =      0.65213  eV     1   --> A              
     e( 10 - 10) =      0.65617  eV     1   --> A              
     e( 11 - 11) =      1.50275  eV     1   --> A              
     e( 12 - 12) =      1.61084  eV     1   --> A              
     e( 13 - 13) =      2.68996  eV     1   --> A              
     e( 14 - 14) =      2.69118  eV     1   --> A              
     e( 15 - 15) =      3.37484  eV     1   --> A              
     e( 16 - 16) =      3.37577  eV     1   --> A              
     e( 17 - 17) =      6.04889  eV     1   --> A              
     e( 18 - 18) =      6.05105  eV     1   --> A              
     e( 19 - 19) =      7.95641  eV     1   --> A              
     e( 20 - 20) =      8.29462  eV     1   --> A              
     e( 21 - 21) =     10.31176  eV     1   --> A              
     e( 22 - 22) =     10.31392  eV     1   --> A              
     e( 23 - 23) =     11.58111  eV     1   --> A              
     e( 24 - 24) =     11.82084  eV     1   --> A              
     e( 25 - 25) =     11.82183  eV     1   --> A              

 **************************************************************************

 **************************************************************************

                    xk=(   0.57734,   0.32227,  -0.00000  )

     Band symmetry, C_1 (1)     point group:

     e(  1 -  1) =    -12.47203  eV     1   --> A              
     e(  2 -  2) =    -12.47020  eV     1   --> A              
     e(  3 -  3) =     -5.92045  eV     1   --> A              
     e(  4 -  4) =     -5.91668  eV     1   --> A              
     e(  5 -  5) =     -0.61854  eV     1   --> A              
     e(  6 -  6) =     -0.61042  eV     1   --> A              
     e(  7 -  7) =     -0.16672  eV     1   --> A              
     e(  8 -  8) =     -0.12108  eV     1   --> A              
     e(  9 -  9) =      0.64732  eV     1   --> A              
     e( 10 - 10) =      0.65294  eV     1   --> A              
     e( 11 - 11) =      1.51186  eV     1   --> A              
     e( 12 - 12) =      1.61878  eV     1   --> A              
     e( 13 - 13) =      2.65915  eV     1   --> A              
     e( 14 - 14) =      2.71924  eV     1   --> A              
     e( 15 - 15) =      3.35317  eV     1   --> A              
     e( 16 - 16) =      3.39676  eV     1   --> A              
     e( 17 - 17) =      6.02557  eV     1   --> A              
     e( 18 - 18) =      6.07054  eV     1   --> A              
     e( 19 - 19) =      7.96043  eV     1   --> A              
     e( 20 - 20) =      8.29629  eV     1   --> A              
     e( 21 - 21) =     10.28487  eV     1   --> A              
     e( 22 - 22) =     10.34424  eV     1   --> A              
     e( 23 - 23) =     11.57065  eV     1   --> A              
     e( 24 - 24) =     11.79024  eV     1   --> A              
     e( 25 - 25) =     11.84351  eV     1   --> A              

 **************************************************************************

 **************************************************************************

                    xk=(   0.57734,   0.31115,  -0.00000  )

     Band symmetry, C_1 (1)     point group:

     e(  1 -  1) =    -12.47277  eV     1   --> A              
     e(  2 -  2) =    -12.47094  eV     1   --> A              
     e(  3 -  3) =     -5.92373  eV     1   --> A              
     e(  4 -  4) =     -5.91996  eV     1   --> A              
     e(  5 -  5) =     -0.63530  eV     1   --> A              
     e(  6 -  6) =     -0.61912  eV     1   --> A              
     e(  7 -  7) =     -0.14849  eV     1   --> A              
     e(  8 -  8) =     -0.10467  eV     1   --> A              
     e(  9 -  9) =      0.63286  eV     1   --> A              
     e( 10 - 10) =      0.64269  eV     1   --> A              
     e( 11 - 11) =      1.53930  eV     1   --> A              
     e( 12 - 12) =      1.64278  eV     1   --> A              
     e( 13 - 13) =      2.62643  eV     1   --> A              
     e( 14 - 14) =      2.74414  eV     1   --> A              
     e( 15 - 15) =      3.33102  eV     1   --> A              
     e( 16 - 16) =      3.41686  eV     1   --> A              
     e( 17 - 17) =      5.99843  eV     1   --> A              
     e( 18 - 18) =      6.08624  eV     1   --> A              
     e( 19 - 19) =      7.97222  eV     1   --> A              
     e( 20 - 20) =      8.30035  eV     1   --> A              
     e( 21 - 21) =     10.26408  eV     1   --> A              
     e( 22 - 22) =     10.37629  eV     1   --> A              
     e( 23 - 23) =     11.54399  eV     1   --> A              
     e( 24 - 24) =     11.73859  eV     1   --> A              
     e( 25 - 25) =     11.87655  eV     1   --> A              

 **************************************************************************

 **************************************************************************

                    xk=(   0.57734,   0.30004,  -0.00000  )

     Band symmetry, C_1 (1)     point group:

     e(  1 -  1) =    -12.47395  eV     1   --> A              
     e(  2 -  2) =    -12.47213  eV     1   --> A              
     e(  3 -  3) =     -5.92897  eV     1   --> A              
     e(  4 -  4) =     -5.92519  eV     1   --> A              
     e(  5 -  5) =     -0.65914  eV     1   --> A              
     e(  6 -  6) =     -0.63515  eV     1   --> A              
     e(  7 -  7) =     -0.11978  eV     1   --> A              
     e(  8 -  8) =     -0.07840  eV     1   --> A              
     e(  9 -  9) =      0.60990  eV     1   --> A              
     e( 10 - 10) =      0.62516  eV     1   --> A              
     e( 11 - 11) =      1.58415  eV     1   --> A              
     e( 12 - 12) =      1.68227  eV     1   --> A              
     e( 13 - 13) =      2.59273  eV     1   --> A              
     e( 14 - 14) =      2.76551  eV     1   --> A              
     e( 15 - 15) =      3.30889  eV     1   --> A              
     e( 16 - 16) =      3.43560  eV     1   --> A              
     e( 17 - 17) =      5.96876  eV     1   --> A              
     e( 18 - 18) =      6.09711  eV     1   --> A              
     e( 19 - 19) =      7.99123  eV     1   --> A              
     e( 20 - 20) =      8.30529  eV     1   --> A              
     e( 21 - 21) =     10.25190  eV     1   --> A              
     e( 22 - 22) =     10.40910  eV     1   --> A              
     e( 23 - 23) =     11.50733  eV     1   --> A              
     e( 24 - 24) =     11.67999  eV     1   --> A              
     e( 25 - 25) =     11.91186  eV     1   --> A              

 **************************************************************************

 **************************************************************************

                    xk=(   0.57734,   0.28893,  -0.00000  )

     Band symmetry, C_1 (1)     point group:

     e(  1 -  1) =    -12.47555  eV     1   --> A              
     e(  2 -  2) =    -12.47372  eV     1   --> A              
     e(  3 -  3) =     -5.93597  eV     1   --> A              
     e(  4 -  4) =     -5.93218  eV     1   --> A              
     e(  5 -  5) =     -0.68815  eV     1   --> A              
     e(  6 -  6) =     -0.65699  eV     1   --> A              
     e(  7 -  7) =     -0.08261  eV     1   --> A              
     e(  8 -  8) =     -0.04400  eV     1   --> A              
     e(  9 -  9) =      0.58028  eV     1   --> A              
     e( 10 - 10) =      0.60116  eV     1   --> A              
     e( 11 - 11) =      1.64458  eV     1   --> A              
     e( 12 - 12) =      1.73586  eV     1   --> A              
     e( 13 - 13) =      2.55838  eV     1   --> A              
     e( 14 - 14) =      2.78362  eV     1   --> A              
     e( 15 - 15) =      3.28682  eV     1   --> A              
     e( 16 - 16) =      3.45295  eV     1   --> A              
     e( 17 - 17) =      5.93688  eV     1   --> A              
     e( 18 - 18) =      6.10332  eV     1   --> A              
     e( 19 - 19) =      8.01674  eV     1   --> A              
     e( 20 - 20) =      8.30943  eV     1   --> A              
     e( 21 - 21) =     10.24959  eV     1   --> A              
     e( 22 - 22) =     10.44284  eV     1   --> A              
     e( 23 - 23) =     11.46412  eV     1   --> A              
     e( 24 - 24) =     11.61934  eV     1   --> A              
     e( 25 - 25) =     11.94379  eV     1   --> A              

 **************************************************************************

 **************************************************************************

                    xk=(   0.57734,   0.27781,  -0.00000  )

     Band symmetry, C_1 (1)     point group:

     e(  1 -  1) =    -12.47752  eV     1   --> A              
     e(  2 -  2) =    -12.47569  eV     1   --> A              
     e(  3 -  3) =     -5.94454  eV     1   --> A              
     e(  4 -  4) =     -5.94073  eV     1   --> A              
     e(  5 -  5) =     -0.72060  eV     1   --> A              
     e(  6 -  6) =     -0.68302  eV     1   --> A              
     e(  7 -  7) =     -0.03889  eV     1   --> A              
     e(  8 -  8) =     -0.00348  eV     1   --> A              
     e(  9 -  9) =      0.54615  eV     1   --> A              
     e( 10 - 10) =      0.57207  eV     1   --> A              
     e( 11 - 11) =      1.71840  eV     1   --> A              
     e( 12 - 12) =      1.80172  eV     1   --> A              
     e( 13 - 13) =      2.52367  eV     1   --> A              
     e( 14 - 14) =      2.79884  eV     1   --> A              
     e( 15 - 15) =      3.26490  eV     1   --> A              
     e( 16 - 16) =      3.46894  eV     1   --> A              
     e( 17 - 17) =      5.90313  eV     1   --> A              
     e( 18 - 18) =      6.10518  eV     1   --> A              
     e( 19 - 19) =      8.04795  eV     1   --> A              
     e( 20 - 20) =      8.31112  eV     1   --> A              
     e( 21 - 21) =     10.25825  eV     1   --> A              
     e( 22 - 22) =     10.47769  eV     1   --> A              
     e( 23 - 23) =     11.41591  eV     1   --> A              
     e( 24 - 24) =     11.55853  eV     1   --> A              
     e( 25 - 25) =     11.96913  eV     1   --> A              

 **************************************************************************

 **************************************************************************

                    xk=(   0.57734,   0.26670,  -0.00000  )

     Band symmetry, C_1 (1)     point group:

     e(  1 -  1) =    -12.47982  eV     1   --> A              
     e(  2 -  2) =    -12.47799  eV     1   --> A              
     e(  3 -  3) =     -5.95447  eV     1   --> A              
     e(  4 -  4) =     -5.95063  eV     1   --> A              
     e(  5 -  5) =     -0.75514  eV     1   --> A              
     e(  6 -  6) =     -0.71187  eV     1   --> A              
     e(  7 -  7) =      0.00978  eV     1   --> A              
     e(  8 -  8) =      0.04115  eV     1   --> A              
     e(  9 -  9) =      0.50974  eV     1   --> A              
     e( 10 - 10) =      0.53943  eV     1   --> A              
     e( 11 - 11) =      1.80352  eV     1   --> A              
     e( 12 - 12) =      1.87782  eV     1   --> A              
     e( 13 - 13) =      2.48889  eV     1   --> A              
     e( 14 - 14) =      2.81168  eV     1   --> A              
     e( 15 - 15) =      3.24320  eV     1   --> A              
     e( 16 - 16) =      3.48358  eV     1   --> A              
     e( 17 - 17) =      5.86789  eV     1   --> A              
     e( 18 - 18) =      6.10307  eV     1   --> A              
     e( 19 - 19) =      8.08392  eV     1   --> A              
     e( 20 - 20) =      8.30886  eV     1   --> A              
     e( 21 - 21) =     10.27863  eV     1   --> A              
     e( 22 - 22) =     10.51382  eV     1   --> A              
     e( 23 - 23) =     11.36340  eV     1   --> A              
     e( 24 - 24) =     11.49850  eV     1   --> A              
     e( 25 - 25) =     11.98649  eV     1   --> A              

 **************************************************************************

 **************************************************************************

                    xk=(   0.57734,   0.25559,  -0.00000  )

     Band symmetry, C_1 (1)     point group:

     e(  1 -  1) =    -12.48241  eV     1   --> A              
     e(  2 -  2) =    -12.48058  eV     1   --> A              
     e(  3 -  3) =     -5.96556  eV     1   --> A              
     e(  4 -  4) =     -5.96169  eV     1   --> A              
     e(  5 -  5) =     -0.79080  eV     1   --> A              
     e(  6 -  6) =     -0.74244  eV     1   --> A              
     e(  7 -  7) =      0.06198  eV     1   --> A              
     e(  8 -  8) =      0.08764  eV     1   --> A              
     e(  9 -  9) =      0.47354  eV     1   --> A              
     e( 10 - 10) =      0.50478  eV     1   --> A              
     e( 11 - 11) =      1.89812  eV     1   --> A              
     e( 12 - 12) =      1.96215  eV     1   --> A              
     e( 13 - 13) =      2.45425  eV     1   --> A              
     e( 14 - 14) =      2.82271  eV     1   --> A              
     e( 15 - 15) =      3.22181  eV     1   --> A              
     e( 16 - 16) =      3.49696  eV     1   --> A              
     e( 17 - 17) =      5.83150  eV     1   --> A              
     e( 18 - 18) =      6.09747  eV     1   --> A              
     e( 19 - 19) =      8.12367  eV     1   --> A              
     e( 20 - 20) =      8.30145  eV     1   --> A              
     e( 21 - 21) =     10.31103  eV     1   --> A              
     e( 22 - 22) =     10.55136  eV     1   --> A              
     e( 23 - 23) =     11.30688  eV     1   --> A              
     e( 24 - 24) =     11.43984  eV     1   --> A              
     e( 25 - 25) =     11.99598  eV     1   --> A              

 **************************************************************************

 **************************************************************************

                    xk=(   0.57734,   0.24448,  -0.00000  )

     Band symmetry, C_1 (1)     point group:

     e(  1 -  1) =    -12.48525  eV     1   --> A              
     e(  2 -  2) =    -12.48342  eV     1   --> A              
     e(  3 -  3) =     -5.97763  eV     1   --> A              
     e(  4 -  4) =     -5.97371  eV     1   --> A              
     e(  5 -  5) =     -0.82684  eV     1   --> A              
     e(  6 -  6) =     -0.77394  eV     1   --> A              
     e(  7 -  7) =      0.11620  eV     1   --> A              
     e(  8 -  8) =      0.13280  eV     1   --> A              
     e(  9 -  9) =      0.44089  eV     1   --> A              
     e( 10 - 10) =      0.46980  eV     1   --> A              
     e( 11 - 11) =      2.00063  eV     1   --> A              
     e( 12 - 12) =      2.05265  eV     1   --> A              
     e( 13 - 13) =      2.41995  eV     1   --> A              
     e( 14 - 14) =      2.83271  eV     1   --> A              
     e( 15 - 15) =      3.20088  eV     1   --> A              
     e( 16 - 16) =      3.50914  eV     1   --> A              
     e( 17 - 17) =      5.79436  eV     1   --> A              
     e( 18 - 18) =      6.08886  eV     1   --> A              
     e( 19 - 19) =      8.16616  eV     1   --> A              
     e( 20 - 20) =      8.28812  eV     1   --> A              
     e( 21 - 21) =     10.35515  eV     1   --> A              
     e( 22 - 22) =     10.59039  eV     1   --> A              
     e( 23 - 23) =     11.24661  eV     1   --> A              
     e( 24 - 24) =     11.38302  eV     1   --> A              
     e( 25 - 25) =     11.99883  eV     1   --> A              

 **************************************************************************

 **************************************************************************

                    xk=(   0.57734,   0.23336,  -0.00000  )

     Band symmetry, C_1 (1)     point group:

     e(  1 -  1) =    -12.48831  eV     1   --> A              
     e(  2 -  2) =    -12.48647  eV     1   --> A              
     e(  3 -  3) =     -5.99048  eV     1   --> A              
     e(  4 -  4) =     -5.98651  eV     1   --> A              
     e(  5 -  5) =     -0.86276  eV     1   --> A              
     e(  6 -  6) =     -0.80574  eV     1   --> A              
     e(  7 -  7) =      0.16960  eV     1   --> A              
     e(  8 -  8) =      0.17175  eV     1   --> A              
     e(  9 -  9) =      0.41743  eV     1   --> A              
     e( 10 - 10) =      0.43679  eV     1   --> A              
     e( 11 - 11) =      2.10969  eV     1   --> A              
     e( 12 - 12) =      2.14716  eV     1   --> A              
     e( 13 - 13) =      2.38619  eV     1   --> A              
     e( 14 - 14) =      2.84269  eV     1   --> A              
     e( 15 - 15) =      3.18065  eV     1   --> A              
     e( 16 - 16) =      3.52026  eV     1   --> A              
     e( 17 - 17) =      5.75678  eV     1   --> A              
     e( 18 - 18) =      6.07773  eV     1   --> A              
     e( 19 - 19) =      8.21035  eV     1   --> A              
     e( 20 - 20) =      8.26852  eV     1   --> A              
     e( 21 - 21) =     10.40999  eV     1   --> A              
     e( 22 - 22) =     10.63088  eV     1   --> A              
     e( 23 - 23) =     11.18285  eV     1   --> A              
     e( 24 - 24) =     11.32851  eV     1   --> A              
     e( 25 - 25) =     11.99696  eV     1   --> A              

 **************************************************************************

 **************************************************************************

                    xk=(   0.57734,   0.22225,  -0.00000  )

     Band symmetry, C_1 (1)     point group:

     e(  1 -  1) =    -12.49153  eV     1   --> A              
     e(  2 -  2) =    -12.48970  eV     1   --> A              
[...]
     e( 10 - 10) =      1.58055  eV     1   --> A''            
     e( 11 - 11) =      1.58314  eV     1   --> A''            
     e( 12 - 12) =      3.13261  eV     1   --> A'             
     e( 13 - 13) =      3.88677  eV     1   --> A'             
     e( 14 - 14) =      3.99084  eV     1   --> A'             
     e( 15 - 15) =      4.77797  eV     1   --> A'             
     e( 16 - 16) =      5.29574  eV     1   --> A''            
     e( 17 - 17) =      5.30581  eV     1   --> A''            
     e( 18 - 18) =      6.03807  eV     1   --> A'             
     e( 19 - 19) =      8.29812  eV     1   --> A'             
     e( 20 - 20) =     10.07704  eV     1   --> A'             
     e( 21 - 21) =     11.22307  eV     1   --> A'             
     e( 22 - 22) =     11.66972  eV     1   --> A'             
     e( 23 - 23) =     12.08778  eV     1   --> A'             
     e( 24 - 24) =     12.59815  eV     1   --> A'             
     e( 25 - 25) =     12.88562  eV     1   --> A'             

 **************************************************************************

 **************************************************************************

                    xk=(   0.17320,   0.00000,  -0.00000  )

     Band symmetry, C_s (m)     point group:

     e(  1 -  1) =    -12.97390  eV     1   --> A'             
     e(  2 -  2) =    -12.97099  eV     1   --> A'             
     e(  3 -  3) =     -7.65887  eV     1   --> A'             
     e(  4 -  4) =     -7.63603  eV     1   --> A'             
     e(  5 -  5) =     -0.26784  eV     1   --> A'             
     e(  6 -  6) =      0.07164  eV     1   --> A'             
     e(  7 -  7) =      0.78761  eV     1   --> A'             
     e(  8 -  8) =      1.26293  eV     1   --> A'             
     e(  9 -  9) =      1.52027  eV     1   --> A'             
     e( 10 - 10) =      1.60385  eV     1   --> A''            
     e( 11 - 11) =      1.60635  eV     1   --> A''            
     e( 12 - 12) =      3.15934  eV     1   --> A'             
     e( 13 - 13) =      4.01085  eV     1   --> A'             
     e( 14 - 14) =      4.24577  eV     1   --> A'             
     e( 15 - 15) =      4.76318  eV     1   --> A'             
     e( 16 - 16) =      5.36585  eV     1   --> A''            
     e( 17 - 17) =      5.37534  eV     1   --> A''            
     e( 18 - 18) =      6.05710  eV     1   --> A'             
     e( 19 - 19) =      8.14621  eV     1   --> A'             
     e( 20 - 20) =     10.02216  eV     1   --> A'             
     e( 21 - 21) =     11.36559  eV     1   --> A'             
     e( 22 - 22) =     11.87324  eV     1   --> A'             
     e( 23 - 23) =     12.18713  eV     1   --> A'             
     e( 24 - 24) =     12.75000  eV     1   --> A'             
     e( 25 - 25) =     12.95845  eV     1   --> A'             

 **************************************************************************

 **************************************************************************

                    xk=(   0.15396,   0.00000,  -0.00000  )

     Band symmetry, C_s (m)     point group:

     e(  1 -  1) =    -12.99463  eV     1   --> A'             
     e(  2 -  2) =    -12.99165  eV     1   --> A'             
     e(  3 -  3) =     -7.71457  eV     1   --> A'             
     e(  4 -  4) =     -7.69088  eV     1   --> A'             
     e(  5 -  5) =     -0.33376  eV     1   --> A'             
     e(  6 -  6) =      0.11343  eV     1   --> A'             
     e(  7 -  7) =      0.93287  eV     1   --> A'             
     e(  8 -  8) =      1.22469  eV     1   --> A'             
     e(  9 -  9) =      1.52923  eV     1   --> A'             
     e( 10 - 10) =      1.62563  eV     1   --> A''            
     e( 11 - 11) =      1.62802  eV     1   --> A''            
     e( 12 - 12) =      3.15726  eV     1   --> A'             
     e( 13 - 13) =      4.09104  eV     1   --> A'             
     e( 14 - 14) =      4.49802  eV     1   --> A'             
     e( 15 - 15) =      4.81149  eV     1   --> A'             
     e( 16 - 16) =      5.43278  eV     1   --> A''            
     e( 17 - 17) =      5.44174  eV     1   --> A''            
     e( 18 - 18) =      6.07208  eV     1   --> A'             
     e( 19 - 19) =      8.00157  eV     1   --> A'             
     e( 20 - 20) =      9.95680  eV     1   --> A'             
     e( 21 - 21) =     11.49136  eV     1   --> A'             
     e( 22 - 22) =     12.06069  eV     1   --> A'             
     e( 23 - 23) =     12.29162  eV     1   --> A'             
     e( 24 - 24) =     12.84424  eV     1   --> A'             
     e( 25 - 25) =     12.98970  eV     1   --> A'             

 **************************************************************************

 **************************************************************************

                    xk=(   0.13471,   0.00000,  -0.00000  )

     Band symmetry, C_s (m)     point group:

     e(  1 -  1) =    -13.01339  eV     1   --> A'             
     e(  2 -  2) =    -13.01034  eV     1   --> A'             
     e(  3 -  3) =     -7.76426  eV     1   --> A'             
     e(  4 -  4) =     -7.73982  eV     1   --> A'             
     e(  5 -  5) =     -0.39242  eV     1   --> A'             
     e(  6 -  6) =      0.14418  eV     1   --> A'             
     e(  7 -  7) =      1.07519  eV     1   --> A'             
     e(  8 -  8) =      1.19006  eV     1   --> A'             
     e(  9 -  9) =      1.54885  eV     1   --> A'             
     e( 10 - 10) =      1.64556  eV     1   --> A''            
     e( 11 - 11) =      1.64789  eV     1   --> A''            
     e( 12 - 12) =      3.13744  eV     1   --> A'             
     e( 13 - 13) =      4.11178  eV     1   --> A'             
     e( 14 - 14) =      4.74140  eV     1   --> A'             
     e( 15 - 15) =      4.92698  eV     1   --> A'             
     e( 16 - 16) =      5.49545  eV     1   --> A''            
     e( 17 - 17) =      5.50394  eV     1   --> A''            
     e( 18 - 18) =      6.08326  eV     1   --> A'             
     e( 19 - 19) =      7.86676  eV     1   --> A'             
     e( 20 - 20) =      9.88800  eV     1   --> A'             
     e( 21 - 21) =     11.59568  eV     1   --> A'             
     e( 22 - 22) =     12.21377  eV     1   --> A'             
     e( 23 - 23) =     12.38670  eV     1   --> A'             
     e( 24 - 24) =     12.84633  eV     1   --> A'             
     e( 25 - 25) =     12.99357  eV     1   --> A'             

 **************************************************************************

 **************************************************************************

                    xk=(   0.11547,   0.00000,  -0.00000  )

     Band symmetry, C_s (m)     point group:

     e(  1 -  1) =    -13.03000  eV     1   --> A'             
     e(  2 -  2) =    -13.02688  eV     1   --> A'             
     e(  3 -  3) =     -7.80773  eV     1   --> A'             
     e(  4 -  4) =     -7.78263  eV     1   --> A'             
     e(  5 -  5) =     -0.44360  eV     1   --> A'             
     e(  6 -  6) =      0.16528  eV     1   --> A'             
     e(  7 -  7) =      1.15837  eV     1   --> A'             
     e(  8 -  8) =      1.21337  eV     1   --> A'             
     e(  9 -  9) =      1.57662  eV     1   --> A'             
     e( 10 - 10) =      1.66343  eV     1   --> A''            
     e( 11 - 11) =      1.66567  eV     1   --> A''            
     e( 12 - 12) =      3.10598  eV     1   --> A'             
     e( 13 - 13) =      4.09205  eV     1   --> A'             
     e( 14 - 14) =      4.97089  eV     1   --> A'             
     e( 15 - 15) =      5.08247  eV     1   --> A'             
     e( 16 - 16) =      5.55273  eV     1   --> A''            
     e( 17 - 17) =      5.56083  eV     1   --> A''            
     e( 18 - 18) =      6.09101  eV     1   --> A'             
     e( 19 - 19) =      7.74412  eV     1   --> A'             
     e( 20 - 20) =      9.82071  eV     1   --> A'             
     e( 21 - 21) =     11.67826  eV     1   --> A'             
     e( 22 - 22) =     12.28875  eV     1   --> A'             
     e( 23 - 23) =     12.44089  eV     1   --> A'             
     e( 24 - 24) =     12.84013  eV     1   --> A'             
     e( 25 - 25) =     12.96691  eV     1   --> A'             

 **************************************************************************

 **************************************************************************

                    xk=(   0.09622,   0.00000,  -0.00000  )

     Band symmetry, C_s (m)     point group:

     e(  1 -  1) =    -13.04430  eV     1   --> A'             
     e(  2 -  2) =    -13.04113  eV     1   --> A'             
     e(  3 -  3) =     -7.84479  eV     1   --> A'             
     e(  4 -  4) =     -7.81913  eV     1   --> A'             
     e(  5 -  5) =     -0.48712  eV     1   --> A'             
     e(  6 -  6) =      0.17866  eV     1   --> A'             
     e(  7 -  7) =      1.13167  eV     1   --> A'             
     e(  8 -  8) =      1.34299  eV     1   --> A'             
     e(  9 -  9) =      1.60895  eV     1   --> A'             
     e( 10 - 10) =      1.67899  eV     1   --> A''            
     e( 11 - 11) =      1.68116  eV     1   --> A''            
     e( 12 - 12) =      3.06669  eV     1   --> A'             
     e( 13 - 13) =      4.05537  eV     1   --> A'             
     e( 14 - 14) =      5.18112  eV     1   --> A'             
     e( 15 - 15) =      5.24823  eV     1   --> A'             
     e( 16 - 16) =      5.60354  eV     1   --> A''            
     e( 17 - 17) =      5.61130  eV     1   --> A''            
     e( 18 - 18) =      6.09577  eV     1   --> A'             
     e( 19 - 19) =      7.63583  eV     1   --> A'             
     e( 20 - 20) =      9.75847  eV     1   --> A'             
     e( 21 - 21) =     11.74136  eV     1   --> A'             
     e( 22 - 22) =     12.24830  eV     1   --> A'             
     e( 23 - 23) =     12.42091  eV     1   --> A'             
     e( 24 - 24) =     12.88617  eV     1   --> A'             
     e( 25 - 25) =     12.99404  eV     1   --> A'             

 **************************************************************************

 **************************************************************************

                    xk=(   0.07698,   0.00000,  -0.00000  )

     Band symmetry, C_s (m)     point group:

     e(  1 -  1) =    -13.05617  eV     1   --> A'             
     e(  2 -  2) =    -13.05296  eV     1   --> A'             
     e(  3 -  3) =     -7.87530  eV     1   --> A'             
     e(  4 -  4) =     -7.84917  eV     1   --> A'             
     e(  5 -  5) =     -0.52286  eV     1   --> A'             
     e(  6 -  6) =      0.18640  eV     1   --> A'             
     e(  7 -  7) =      1.10906  eV     1   --> A'             
     e(  8 -  8) =      1.46181  eV     1   --> A'             
     e(  9 -  9) =      1.64195  eV     1   --> A'             
     e( 10 - 10) =      1.69203  eV     1   --> A''            
     e( 11 - 11) =      1.69417  eV     1   --> A''            
     e( 12 - 12) =      3.02300  eV     1   --> A'             
     e( 13 - 13) =      4.01581  eV     1   --> A'             
     e( 14 - 14) =      5.36623  eV     1   --> A'             
     e( 15 - 15) =      5.40468  eV     1   --> A'             
     e( 16 - 16) =      5.64680  eV     1   --> A''            
     e( 17 - 17) =      5.65431  eV     1   --> A''            
     e( 18 - 18) =      6.09807  eV     1   --> A'             
     e( 19 - 19) =      7.54387  eV     1   --> A'             
     e( 20 - 20) =      9.70399  eV     1   --> A'             
     e( 21 - 21) =     11.78768  eV     1   --> A'             
     e( 22 - 22) =     12.14338  eV     1   --> A'             
     e( 23 - 23) =     12.33224  eV     1   --> A'             
     e( 24 - 24) =     12.97000  eV     1   --> A'             
     e( 25 - 25) =     13.08727  eV     1   --> A'             

 **************************************************************************

 **************************************************************************

                    xk=(   0.05773,   0.00000,  -0.00000  )

     Band symmetry, C_s (m)     point group:

     e(  1 -  1) =    -13.06552  eV     1   --> A'             
     e(  2 -  2) =    -13.06227  eV     1   --> A'             
     e(  3 -  3) =     -7.89915  eV     1   --> A'             
     e(  4 -  4) =     -7.87266  eV     1   --> A'             
     e(  5 -  5) =     -0.55075  eV     1   --> A'             
     e(  6 -  6) =      0.19039  eV     1   --> A'             
     e(  7 -  7) =      1.09112  eV     1   --> A'             
     e(  8 -  8) =      1.56482  eV     1   --> A'             
     e(  9 -  9) =      1.67191  eV     1   --> A'             
     e( 10 - 10) =      1.70238  eV     1   --> A''            
     e( 11 - 11) =      1.70447  eV     1   --> A''            
     e( 12 - 12) =      2.97900  eV     1   --> A'             
     e( 13 - 13) =      3.98064  eV     1   --> A'             
     e( 14 - 14) =      5.51988  eV     1   --> A'             
     e( 15 - 15) =      5.53907  eV     1   --> A'             
     e( 16 - 16) =      5.68157  eV     1   --> A''            
     e( 17 - 17) =      5.68888  eV     1   --> A''            
     e( 18 - 18) =      6.09859  eV     1   --> A'             
     e( 19 - 19) =      7.47002  eV     1   --> A'             
     e( 20 - 20) =      9.65936  eV     1   --> A'             
     e( 21 - 21) =     11.81924  eV     1   --> A'             
     e( 22 - 22) =     12.03004  eV     1   --> A'             
     e( 23 - 23) =     12.22643  eV     1   --> A'             
     e( 24 - 24) =     13.06110  eV     1   --> A'             
     e( 25 - 25) =     13.19453  eV     1   -->   ?

 **************************************************************************

 **************************************************************************

                    xk=(   0.03849,   0.00000,  -0.00000  )

     Band symmetry, C_s (m)     point group:

     e(  1 -  1) =    -13.07225  eV     1   --> A'             
     e(  2 -  2) =    -13.06897  eV     1   --> A'             
     e(  3 -  3) =     -7.91625  eV     1   --> A'             
     e(  4 -  4) =     -7.88950  eV     1   --> A'             
     e(  5 -  5) =     -0.57071  eV     1   --> A'             
     e(  6 -  6) =      0.19215  eV     1   --> A'             
     e(  7 -  7) =      1.07813  eV     1   --> A'             
     e(  8 -  8) =      1.64609  eV     1   --> A'             
     e(  9 -  9) =      1.69574  eV     1   --> A'             
     e( 10 - 10) =      1.70986  eV     1   --> A''            
     e( 11 - 11) =      1.71194  eV     1   --> A''            
     e( 12 - 12) =      2.94017  eV     1   --> A'             
     e( 13 - 13) =      3.95370  eV     1   --> A'             
     e( 14 - 14) =      5.63533  eV     1   --> A'             
     e( 15 - 15) =      5.64250  eV     1   --> A'             
     e( 16 - 16) =      5.70704  eV     1   --> A''            
     e( 17 - 17) =      5.71421  eV     1   --> A''            
     e( 18 - 18) =      6.09808  eV     1   --> A'             
     e( 19 - 19) =      7.41587  eV     1   --> A'             
     e( 20 - 20) =      9.62621  eV     1   --> A'             
     e( 21 - 21) =     11.83748  eV     1   --> A'             
     e( 22 - 22) =     11.93566  eV     1   --> A'             
     e( 23 - 23) =     12.13858  eV     1   --> A'             
     e( 24 - 24) =     13.13723  eV     1   --> A'             
     e( 25 - 25) =     13.23634  eV     1   -->   ?

 **************************************************************************

 **************************************************************************

                    xk=(   0.01924,   0.00000,  -0.00000  )

     Band symmetry, C_s (m)     point group:

     e(  1 -  1) =    -13.07631  eV     1   --> A'             
     e(  2 -  2) =    -13.07302  eV     1   --> A'             
     e(  3 -  3) =     -7.92653  eV     1   --> A'             
     e(  4 -  4) =     -7.89962  eV     1   --> A'             
     e(  5 -  5) =     -0.58270  eV     1   --> A'             
     e(  6 -  6) =      0.19277  eV     1   --> A'             
     e(  7 -  7) =      1.07027  eV     1   --> A'             
     e(  8 -  8) =      1.69882  eV     1   --> A'             
     e(  9 -  9) =      1.71106  eV     1   --> A'             
     e( 10 - 10) =      1.71437  eV     1   --> A''            
     e( 11 - 11) =      1.71645  eV     1   --> A''            
     e( 12 - 12) =      2.91295  eV     1   --> A'             
     e( 13 - 13) =      3.93693  eV     1   --> A'             
     e( 14 - 14) =      5.70476  eV     1   --> A'             
     e( 15 - 15) =      5.71018  eV     1   --> A'             
     e( 16 - 16) =      5.72258  eV     1   --> A''            
     e( 17 - 17) =      5.72967  eV     1   --> A''            
     e( 18 - 18) =      6.09730  eV     1   --> A'             
     e( 19 - 19) =      7.38275  eV     1   --> A'             
     e( 20 - 20) =      9.60580  eV     1   --> A'             
     e( 21 - 21) =     11.84470  eV     1   --> A'             
     e( 22 - 22) =     11.87421  eV     1   --> A'             
     e( 23 - 23) =     12.08398  eV     1   --> A'             
     e( 24 - 24) =     13.18678  eV     1   --> A'             
     e( 25 - 25) =     13.21297  eV     1   --> A''            

 **************************************************************************

 **************************************************************************

                    xk=(   0.00000,   0.00000,   0.00000  )

     Band symmetry, C_s (m)     point group:

     e(  1 -  1) =    -13.07767  eV     1   --> A'             
     e(  2 -  2) =    -13.07438  eV     1   --> A'             
     e(  3 -  3) =     -7.92996  eV     1   --> A'             
     e(  4 -  4) =     -7.90300  eV     1   --> A'             
     e(  5 -  5) =     -0.58670  eV     1   --> A'             
     e(  6 -  6) =      0.19290  eV     1   --> A'             
     e(  7 -  7) =      1.06763  eV     1   --> A'             
     e(  8 -  8) =      1.71572  eV     1   --> A'             
     e(  9 -  9) =      1.71589  eV     1   --> A''            
     e( 10 - 10) =      1.71782  eV     1   --> A'             
     e( 11 - 11) =      1.71797  eV     1   --> A''            
     e( 12 - 12) =      2.90308  eV     1   --> A'             
     e( 13 - 13) =      3.93125  eV     1   --> A'             
     e( 14 - 14) =      5.72729  eV     1   --> A'             
     e( 15 - 15) =      5.72780  eV     1   --> A''            
     e( 16 - 16) =      5.73438  eV     1   --> A'             
     e( 17 - 17) =      5.73487  eV     1   --> A''            
     e( 18 - 18) =      6.09694  eV     1   --> A'             
     e( 19 - 19) =      7.37159  eV     1   --> A'             
     e( 20 - 20) =      9.59890  eV     1   --> A'             
     e( 21 - 21) =     11.84581  eV     1   --> A'             
     e( 22 - 22) =     11.85312  eV     1   --> A'             
     e( 23 - 23) =     12.06605  eV     1   --> A'             
     e( 24 - 24) =     13.20392  eV     1   --> A'             
     e( 25 - 25) =     13.20503  eV     1   --> A''            

 **************************************************************************
 
     BANDS        :     12.31s CPU     13.91s WALL

 
   This run was terminated on:  13:48:53  12Jun2023            

=------------------------------------------------------------------------------=
   JOB DONE.
=------------------------------------------------------------------------------=
