
     Program PWSCF v.7.1 starts on 12Jun2023 at 13:45:54 

     This program is part of the open-source Quantum ESPRESSO suite
     for quantum simulation of materials; please cite
         "P. Giannozzi et al., J. Phys.:Condens. Matter 21 395502 (2009);
         "P. Giannozzi et al., J. Phys.:Condens. Matter 29 465901 (2017);
         "P. Giannozzi et al., J. Chem. Phys. 152 154105 (2020);
          URL http://www.quantum-espresso.org", 
     in publications or presentations arising from this work. More details at
     http://www.quantum-espresso.org/quote

     Parallel version (MPI), running on     6 processors

     MPI processes distributed on     1 nodes
     101382 MiB available memory on the printing compute node when the environment starts
 
     Waiting for input...
     Reading input from standard input

     Current dimensions of program PWSCF are:
     Max number of different atomic species (ntypx) = 10
     Max number of k-points (npk) =  40000
     Max angular momentum in pseudopotentials (lmaxx) =  4
     Message from routine volume:
     axis vectors are left-handed

     Atomic positions and unit cell read from directory:
     ./work/Al2SO.save/
     Atomic positions from file used, from input discarded
 
     Message from routine volume:
     axis vectors are left-handed
     file Al.pbe-n-kjpaw_psl.1.0.0.UPF: wavefunction(s)  3S 3P renormalized
     file O.pbe-n-kjpaw_psl.1.0.0.UPF: wavefunction(s)  2S 2P renormalized
     file S.pbe-n-kjpaw_psl.1.0.0.UPF: wavefunction(s)  3S 3P renormalized

     IMPORTANT: XC functional enforced from input :
     Exchange-correlation= VDW-DF2-B86R
                           (   1   4  26   0   2   0   0)
     Any further DFT definition will be discarded
     Please, verify this is what you really want

     Message from routine setup:
     using ibrav=0 with symmetry is DISCOURAGED, use correct ibrav instead
 
     R & G space division:  proc/nbgrp/npool/nimage =       6
     Subspace diagonalization in iterative solution of the eigenvalue problem:
     a serial algorithm will be used

 
     Parallelization info
     --------------------
     sticks:   dense  smooth     PW     G-vecs:    dense   smooth      PW
     Min         108     108     31                 8838     8838    1409
     Max         109     109     32                 8844     8844    1422
     Sum         649     649    187                53045    53045    8473
 
     Using Slab Decomposition
 


     bravais-lattice index     =            0
     lattice parameter (alat)  =       6.2033  a.u.
     unit-cell volume          =     843.0652 (a.u.)^3
     number of atoms/cell      =            8
     number of atomic types    =            3
     number of electrons       =        36.00
     number of Kohn-Sham states=           25
     kinetic-energy cutoff     =      60.0000  Ry
     charge density cutoff     =     240.0000  Ry
     Exchange-correlation= VDW-DF2-B86R
                           (   1   4  26   0   2   0   0)

     celldm(1)=   6.203328  celldm(2)=   0.000000  celldm(3)=   0.000000
     celldm(4)=   0.000000  celldm(5)=   0.000000  celldm(6)=   0.000000

     crystal axes: (cart. coord. in units of alat)
               a(1) = (   0.866041   0.499973   0.000003 )  
               a(2) = (   0.866041  -0.499973   0.000003 )  
               a(3) = (   0.000010   0.000000   4.078231 )  

     reciprocal axes: (cart. coord. in units 2 pi/alat)
               b(1) = (  0.577340  1.000053 -0.000001 )  
               b(2) = (  0.577340 -1.000053 -0.000001 )  
               b(3) = ( -0.000001  0.000000  0.245204 )  


     PseudoPot. # 1 for Al read from file:
     /home/mainadmin/research/danu/pseudo/Al.pbe-n-kjpaw_psl.1.0.0.UPF
     MD5 check sum: 502b6b27b9c6270cab5dd1084b96fa6d
     Pseudo is Projector augmented-wave + core cor, Zval =  3.0
     Generated using &quot;atomic&quot; code by A. Dal Corso  v.6.3
     Shape of augmentation charge: PSQ
     Using radial grid of 1135 points,  6 beta functions with: 
                l(1) =   0
                l(2) =   0
                l(3) =   1
                l(4) =   1
                l(5) =   2
                l(6) =   2
     Q(r) pseudized with 0 coefficients 


     PseudoPot. # 2 for O  read from file:
     /home/mainadmin/research/danu/pseudo/O.pbe-n-kjpaw_psl.1.0.0.UPF
     MD5 check sum: e99d9cef9b487d1ca56f5b95ecd0fd7a
     Pseudo is Projector augmented-wave + core cor, Zval =  6.0
     Generated using &quot;atomic&quot; code by A. Dal Corso  v.6.3
     Shape of augmentation charge: PSQ
     Using radial grid of 1095 points,  4 beta functions with: 
                l(1) =   0
                l(2) =   0
                l(3) =   1
                l(4) =   1
     Q(r) pseudized with 0 coefficients 


     PseudoPot. # 3 for S  read from file:
     /home/mainadmin/research/danu/pseudo/S.pbe-n-kjpaw_psl.1.0.0.UPF
     MD5 check sum: fb45dfebcf3e72a4e1bd4a866ec2e262
     Pseudo is Projector augmented-wave + core cor, Zval =  6.0
     Generated using &quot;atomic&quot; code by A. Dal Corso  v.6.3
     Shape of augmentation charge: PSQ
     Using radial grid of 1151 points,  6 beta functions with: 
                l(1) =   0
                l(2) =   0
                l(3) =   1
                l(4) =   1
                l(5) =   2
                l(6) =   2
     Q(r) pseudized with 0 coefficients 


     atomic species   valence    mass     pseudopotential
        Al             3.00    26.98100     Al( 1.00)
        O              6.00    15.99900     O ( 1.00)
        S              6.00    32.06500     S ( 1.00)

      2 Sym. Ops. (no inversion) found



   Cartesian axes

     site n.     atom                  positions (alat units)
         1           O   tau(   1) = (   1.1547210   0.0000000   0.0000036  )
         2           Al  tau(   2) = (   0.5773605   0.0000000   0.0888171  )
         3           Al  tau(   3) = (   0.5773632   0.0000000   0.8930581  )
         4           S   tau(   4) = (   1.1547248   0.0000000   1.2775636  )
         5           O   tau(   5) = (   0.5773646   0.0000000   2.0391660  )
         6           Al  tau(   6) = (   1.1547263   0.0000000   2.1279808  )
         7           Al  tau(   7) = (   1.1547286   0.0000000   2.9323458  )
         8           S   tau(   8) = (   0.5773686   0.0000000   3.3165754  )

     number of k points=    91
                       cart. coord. in units 2pi/alat
        k(    1) = (   0.0000000   0.0000000   0.0000000), wk =   0.0219780
        k(    2) = (   0.0192447   0.0111126  -0.0000000), wk =   0.0219780
        k(    3) = (   0.0384893   0.0222252  -0.0000001), wk =   0.0219780
        k(    4) = (   0.0577340   0.0333378  -0.0000001), wk =   0.0219780
        k(    5) = (   0.0769787   0.0444504  -0.0000002), wk =   0.0219780
        k(    6) = (   0.0962233   0.0555630  -0.0000002), wk =   0.0219780
        k(    7) = (   0.1154680   0.0666755  -0.0000003), wk =   0.0219780
        k(    8) = (   0.1347127   0.0777881  -0.0000003), wk =   0.0219780
        k(    9) = (   0.1539573   0.0889007  -0.0000004), wk =   0.0219780
        k(   10) = (   0.1732020   0.1000133  -0.0000004), wk =   0.0219780
        k(   11) = (   0.1924467   0.1111259  -0.0000005), wk =   0.0219780
        k(   12) = (   0.2116913   0.1222385  -0.0000005), wk =   0.0219780
        k(   13) = (   0.2309360   0.1333511  -0.0000006), wk =   0.0219780
        k(   14) = (   0.2501807   0.1444637  -0.0000006), wk =   0.0219780
        k(   15) = (   0.2694253   0.1555763  -0.0000006), wk =   0.0219780
        k(   16) = (   0.2886700   0.1666889  -0.0000007), wk =   0.0219780
        k(   17) = (   0.3079147   0.1778015  -0.0000007), wk =   0.0219780
        k(   18) = (   0.3271594   0.1889141  -0.0000008), wk =   0.0219780
        k(   19) = (   0.3464040   0.2000266  -0.0000008), wk =   0.0219780
        k(   20) = (   0.3656487   0.2111392  -0.0000009), wk =   0.0219780
        k(   21) = (   0.3848934   0.2222518  -0.0000009), wk =   0.0219780
        k(   22) = (   0.4041380   0.2333644  -0.0000010), wk =   0.0219780
        k(   23) = (   0.4233827   0.2444770  -0.0000010), wk =   0.0219780
        k(   24) = (   0.4426274   0.2555896  -0.0000011), wk =   0.0219780
        k(   25) = (   0.4618720   0.2667022  -0.0000011), wk =   0.0219780
        k(   26) = (   0.4811167   0.2778148  -0.0000012), wk =   0.0219780
        k(   27) = (   0.5003614   0.2889274  -0.0000012), wk =   0.0219780
        k(   28) = (   0.5196060   0.3000400  -0.0000013), wk =   0.0219780
        k(   29) = (   0.5388507   0.3111526  -0.0000013), wk =   0.0219780
        k(   30) = (   0.5580954   0.3222651  -0.0000013), wk =   0.0219780
        k(   31) = (   0.5773400   0.3333777  -0.0000014), wk =   0.0219780
        k(   32) = (   0.5773400   0.3222651  -0.0000014), wk =   0.0219780
        k(   33) = (   0.5773400   0.3111526  -0.0000014), wk =   0.0219780
        k(   34) = (   0.5773400   0.3000400  -0.0000014), wk =   0.0219780
        k(   35) = (   0.5773400   0.2889274  -0.0000014), wk =   0.0219780
        k(   36) = (   0.5773400   0.2778148  -0.0000014), wk =   0.0219780
        k(   37) = (   0.5773400   0.2667022  -0.0000014), wk =   0.0219780
        k(   38) = (   0.5773400   0.2555896  -0.0000014), wk =   0.0219780
        k(   39) = (   0.5773400   0.2444770  -0.0000014), wk =   0.0219780
        k(   40) = (   0.5773400   0.2333644  -0.0000014), wk =   0.0219780
        k(   41) = (   0.5773400   0.2222518  -0.0000014), wk =   0.0219780
        k(   42) = (   0.5773400   0.2111392  -0.0000014), wk =   0.0219780
        k(   43) = (   0.5773400   0.2000266  -0.0000014), wk =   0.0219780
        k(   44) = (   0.5773400   0.1889141  -0.0000014), wk =   0.0219780
        k(   45) = (   0.5773400   0.1778015  -0.0000014), wk =   0.0219780
        k(   46) = (   0.5773400   0.1666889  -0.0000014), wk =   0.0219780
        k(   47) = (   0.5773400   0.1555763  -0.0000014), wk =   0.0219780
        k(   48) = (   0.5773400   0.1444637  -0.0000014), wk =   0.0219780
        k(   49) = (   0.5773400   0.1333511  -0.0000014), wk =   0.0219780
        k(   50) = (   0.5773400   0.1222385  -0.0000014), wk =   0.0219780
        k(   51) = (   0.5773400   0.1111259  -0.0000014), wk =   0.0219780
        k(   52) = (   0.5773400   0.1000133  -0.0000014), wk =   0.0219780
        k(   53) = (   0.5773400   0.0889007  -0.0000014), wk =   0.0219780
        k(   54) = (   0.5773400   0.0777881  -0.0000014), wk =   0.0219780
        k(   55) = (   0.5773400   0.0666755  -0.0000014), wk =   0.0219780
        k(   56) = (   0.5773400   0.0555630  -0.0000014), wk =   0.0219780
        k(   57) = (   0.5773400   0.0444504  -0.0000014), wk =   0.0219780
        k(   58) = (   0.5773400   0.0333378  -0.0000014), wk =   0.0219780
        k(   59) = (   0.5773400   0.0222252  -0.0000014), wk =   0.0219780
        k(   60) = (   0.5773400   0.0111126  -0.0000014), wk =   0.0219780
        k(   61) = (   0.5773400   0.0000000  -0.0000014), wk =   0.0219780
        k(   62) = (   0.5580954   0.0000000  -0.0000013), wk =   0.0219780
        k(   63) = (   0.5388507   0.0000000  -0.0000013), wk =   0.0219780
        k(   64) = (   0.5196060   0.0000000  -0.0000013), wk =   0.0219780
        k(   65) = (   0.5003614   0.0000000  -0.0000012), wk =   0.0219780
        k(   66) = (   0.4811167   0.0000000  -0.0000012), wk =   0.0219780
        k(   67) = (   0.4618720   0.0000000  -0.0000011), wk =   0.0219780
        k(   68) = (   0.4426274   0.0000000  -0.0000011), wk =   0.0219780
        k(   69) = (   0.4233827   0.0000000  -0.0000010), wk =   0.0219780
        k(   70) = (   0.4041380   0.0000000  -0.0000010), wk =   0.0219780
        k(   71) = (   0.3848934   0.0000000  -0.0000009), wk =   0.0219780
        k(   72) = (   0.3656487   0.0000000  -0.0000009), wk =   0.0219780
        k(   73) = (   0.3464040   0.0000000  -0.0000008), wk =   0.0219780
        k(   74) = (   0.3271594   0.0000000  -0.0000008), wk =   0.0219780
        k(   75) = (   0.3079147   0.0000000  -0.0000007), wk =   0.0219780
        k(   76) = (   0.2886700   0.0000000  -0.0000007), wk =   0.0219780
        k(   77) = (   0.2694253   0.0000000  -0.0000006), wk =   0.0219780
        k(   78) = (   0.2501807   0.0000000  -0.0000006), wk =   0.0219780
        k(   79) = (   0.2309360   0.0000000  -0.0000006), wk =   0.0219780
        k(   80) = (   0.2116913   0.0000000  -0.0000005), wk =   0.0219780
        k(   81) = (   0.1924467   0.0000000  -0.0000005), wk =   0.0219780
        k(   82) = (   0.1732020   0.0000000  -0.0000004), wk =   0.0219780
        k(   83) = (   0.1539573   0.0000000  -0.0000004), wk =   0.0219780
        k(   84) = (   0.1347127   0.0000000  -0.0000003), wk =   0.0219780
        k(   85) = (   0.1154680   0.0000000  -0.0000003), wk =   0.0219780
        k(   86) = (   0.0962233   0.0000000  -0.0000002), wk =   0.0219780
        k(   87) = (   0.0769787   0.0000000  -0.0000002), wk =   0.0219780
        k(   88) = (   0.0577340   0.0000000  -0.0000001), wk =   0.0219780
        k(   89) = (   0.0384893   0.0000000  -0.0000001), wk =   0.0219780
        k(   90) = (   0.0192447   0.0000000  -0.0000000), wk =   0.0219780
        k(   91) = (   0.0000000   0.0000000   0.0000000), wk =   0.0219780

     Dense  grid:    53045 G-vectors     FFT dimensions: (  32,  32, 125)

     Estimated max dynamical RAM per process >      35.09 MB

     Estimated total dynamical RAM >     210.57 MB

     Check: negative core charge=   -0.000003

     The potential is recalculated from file :
     ./work/Al2SO.save/charge-density



     %%%%%%%%%%%%%%%%%%%%%%%%%%%%%%%%%%%%%%%%%%%%%%%%%%%%%%%%%%%%%%%%%%%%%%%%
     %                                                                      %
     % You are using vdW-DF, which was implemented by the Thonhauser group. %
     % Please cite the following two papers that made this development      %
     % possible and the two reviews that describe the various versions:     %
     %                                                                      %
     %   T. Thonhauser et al., PRL 115, 136402 (2015).                      %
     %   T. Thonhauser et al., PRB 76, 125112 (2007).                       %
     %   K. Berland et al., Rep. Prog. Phys. 78, 066501 (2015).             %
     %   D.C. Langreth et al., J. Phys.: Condens. Matter 21, 084203 (2009). %
     %                                                                      %
     % If you are calculating stress with vdW-DF, please also cite:         %
     %                                                                      %
     %   R. Sabatini et al., J. Phys.: Condens. Matter 24, 424209 (2012).   %
     %                                                                      %
     %%%%%%%%%%%%%%%%%%%%%%%%%%%%%%%%%%%%%%%%%%%%%%%%%%%%%%%%%%%%%%%%%%%%%%%%

     %%%%%%%%%%%%%%%%%%%%%%%%%%%%%%%%%%%%%%%%%%%%%%%%%%%%%%%%%%%%%%%%%%%%%%%%
     %                                                                      %
     %  vdW-DF NEWS:                                                        %
     %                                                                      %
     %  * vdW-DF3 is now available. DOI: 10.1021/acs.jctc.0c00471           %
     %    use with input_dft = 'vdW-DF3-opt1' or 'vdW-DF3-opt2'             %
     %                                                                      %
     %  * Unscreened and range-separated vdW-DF hybrid functionals          %
     %    DOI: 10.1063/1.4986522 and 10.1088/1361-648X/ac2ad2               %
     %    use with input_dft = 'vdW-DF-cx0' (etc) and 'vdW-DF-ahcx'         %
     %                                                                      %
     %%%%%%%%%%%%%%%%%%%%%%%%%%%%%%%%%%%%%%%%%%%%%%%%%%%%%%%%%%%%%%%%%%%%%%%%


     Starting wfcs are   32 randomized atomic wfcs
     Checking if some PAW data can be deallocated... 

     Band Structure Calculation
     Davidson diagonalization with overlap
     c_bands:  2 eigenvalues not converged
     c_bands:  2 eigenvalues not converged
     c_bands:  2 eigenvalues not converged
     c_bands:  1 eigenvalues not converged
     c_bands:  1 eigenvalues not converged
     c_bands:  1 eigenvalues not converged
     c_bands:  1 eigenvalues not converged
     c_bands:  1 eigenvalues not converged
     c_bands:  1 eigenvalues not converged
     c_bands:  1 eigenvalues not converged
     c_bands:  1 eigenvalues not converged
     c_bands:  1 eigenvalues not converged
     c_bands:  1 eigenvalues not converged
     c_bands:  1 eigenvalues not converged
     c_bands:  1 eigenvalues not converged
     c_bands:  2 eigenvalues not converged
     c_bands:  2 eigenvalues not converged
     c_bands:  2 eigenvalues not converged
     c_bands:  2 eigenvalues not converged

     ethr =  2.78E-11,  avg # of iterations = 94.9

     total cpu time spent up to now is      161.3 secs

     End of band structure calculation

          k = 0.0000 0.0000 0.0000 (  6657 PWs)   bands (ev):

   -13.0777 -13.0744  -7.9300  -7.9030  -0.5867   0.1929   1.0676   1.7157
     1.7159   1.7178   1.7180   2.9031   3.9313   5.7273   5.7278   5.7344
     5.7349   6.0969   7.3716   9.5989  11.8458  11.8531  12.0660  13.2039
    13.2050

          k = 0.0192 0.0111-0.0000 (  6653 PWs)   bands (ev):

   -13.0759 -13.0726  -7.9254  -7.8985  -0.5814   0.1927   1.0711   1.6928
     1.7094   1.7138   1.7159   2.9161   3.9388   5.6974   5.7024   5.7207
     5.7278   6.0974   7.3865   9.6081  11.8441  11.8812  12.0900  13.1815
    13.2152

          k = 0.0385 0.0222-0.0000 (  6649 PWs)   bands (ev):

   -13.0705 -13.0672  -7.9117  -7.8850  -0.5654   0.1918   1.0816   1.6238
     1.6893   1.7077   1.7098   2.9513   3.9610   5.6046   5.6147   5.6997
     5.7068   6.0983   7.4304   9.6352  11.8335  11.9618  12.1629  13.1167
    13.2338

          k = 0.0577 0.0333-0.0000 (  6639 PWs)   bands (ev):

   -13.0615 -13.0583  -7.8889  -7.8626  -0.5388   0.1889   1.0989   1.5198
     1.6590   1.6975   1.6996   2.9992   3.9962   5.4549   5.4821   5.6644
     5.6717   6.0986   7.5020   9.6788  11.8080  12.0832  12.2791  13.0178
    13.1246

          k = 0.0770 0.0445-0.0000 (  6639 PWs)   bands (ev):

   -13.0491 -13.0459  -7.8572  -7.8313  -0.5017   0.1822   1.1226   1.3910
     1.6227   1.6829   1.6852   3.0505   4.0404   5.2604   5.3151   5.6145
     5.6221   6.0970   7.5989   9.7369  11.7666  12.2283  12.4226  12.8950
    12.9647

          k = 0.0962 0.0556-0.0000 (  6632 PWs)   bands (ev):

   -13.0334 -13.0303  -7.8167  -7.7914  -0.4541   0.1692   1.1523   1.2459
     1.5858   1.6639   1.6666   3.0980   4.0858   5.0321   5.1310   5.5497
     5.5578   6.0926   7.7188   9.8070  11.7094  12.3740  12.5741  12.7598
    12.7861

          k = 0.1155 0.0667-0.0000 (  6627 PWs)   bands (ev):

   -13.0146 -13.0116  -7.7676  -7.7431  -0.3963   0.1469   1.0907   1.1875
     1.5540   1.6402   1.6439   3.1364   4.1160   4.7799   4.9551   5.4697
     5.4785   6.0845   7.8591   9.8860  11.6365  12.4481  12.6108  12.6557
    12.7291

          k = 0.1347 0.0778-0.0000 (  6631 PWs)   bands (ev):

   -12.9930 -12.9900  -7.7101  -7.6865  -0.3284   0.1126   0.9300   1.2278
     1.5318   1.6115   1.6178   3.1604   4.1015   4.5126   4.8266   5.3744
     5.3843   6.0720   8.0169   9.9701  11.5483  12.2963  12.4760  12.7235
    12.8575

          k = 0.1540 0.0889-0.0000 (  6629 PWs)   bands (ev):

   -12.9686 -12.9658  -7.6447  -7.6221  -0.2507   0.0646   0.7673   1.2729
     1.5201   1.5776   1.5914   3.1617   4.0183   4.2378   4.7814   5.2637
     5.2757   6.0547   8.1896  10.0547  11.4456  12.0753  12.3470  12.8099
    12.9654

          k = 0.1732 0.1000-0.0000 (  6641 PWs)   bands (ev):

   -12.9420 -12.9392  -7.5716  -7.5501  -0.1636   0.0029   0.6054   1.3223
     1.5087   1.5381   1.5761   3.1261   3.8926   3.9620   4.8097   5.1380
     5.1545   6.0323   8.3744  10.1343  11.3302  11.8405  12.2290  12.7402
    13.0339

          k = 0.1924 0.1111-0.0000 (  6635 PWs)   bands (ev):

   -12.9133 -12.9106  -7.4914  -7.4711  -0.0709  -0.0673   0.4464   1.3722
     1.4853   1.4930   1.5862   3.0344   3.6917   3.7794   4.8673   4.9978
     5.0325   6.0046   8.5687  10.2021  11.2046  11.6003  12.1223  12.5894
    13.0139

          k = 0.2117 0.1222-0.0000 (  6635 PWs)   bands (ev):

   -12.8830 -12.8804  -7.4045  -7.3855  -0.1540   0.0374   0.2924   1.3901
     1.4417   1.4870   1.6125   2.8803   3.4338   3.7092   4.8251   4.8442
     5.0182   5.9718   8.7702  10.2503  11.0718  11.3592  12.0235  12.4387
    12.8996

          k = 0.2309 0.1334-0.0000 (  6641 PWs)   bands (ev):

   -12.8514 -12.8489  -7.3117  -7.2941  -0.2428   0.1434   0.1516   1.3489
     1.3845   1.5464   1.6414   2.6812   3.1965   3.6774   4.6732   4.6787
     5.1111   5.9341   8.9763  10.2709  10.9350  11.1205  11.9256  12.2945
    12.7694

          k = 0.2502 0.1445-0.0000 (  6649 PWs)   bands (ev):

   -12.8189 -12.8165  -7.2136  -7.1974  -0.3338   0.0055   0.2692   1.2870
     1.3213   1.6252   1.6619   2.4605   2.9905   3.6679   4.4986   4.5037
     5.2197   5.8919   9.1840  10.2568  10.7969  10.8882  11.8201  12.1547
    12.6759

          k = 0.2694 0.1556-0.0000 (  6625 PWs)   bands (ev):

   -12.7859 -12.7836  -7.1111  -7.0964  -0.4238  -0.1245   0.3934   1.2145
     1.2529   1.6519   1.7204   2.2348   2.8298   3.6686   4.3125   4.3198
     5.3320   5.8460   9.3882  10.2037  10.6602  10.6675  11.7048  12.0163
    12.6379

          k = 0.2887 0.1667-0.0000 (  6623 PWs)   bands (ev):

   -12.7529 -12.7506  -7.0051  -6.9919  -0.5098  -0.2442   0.5192   1.1328
     1.1808   1.6106   1.8171   2.0146   2.7272   3.6723   4.1185   4.1292
     5.4438   5.7975   9.5777  10.1115  10.4697  10.5276  11.5868  11.8783
    12.5972

          k = 0.3079 0.1778-0.0000 (  6620 PWs)   bands (ev):

   -12.7202 -12.7181  -6.8969  -6.8851  -0.5896  -0.3526   0.6389   1.0426
     1.1107   1.5287   1.8076   1.9194   2.6862   3.6731   3.9188   3.9361
     5.5529   5.7480   9.7184   9.9838  10.3290  10.4022  11.4759  11.7426
    12.5066

          k = 0.3272 0.1889-0.0000 (  6616 PWs)   bands (ev):

   -12.6883 -12.6862  -6.7875  -6.7772  -0.6611  -0.4488   0.7307   0.9443
     1.0597   1.4173   1.6219   2.0246   2.6955   3.6471   3.7155   3.7640
     5.6569   5.6997   9.7315   9.8267  10.2879  10.3230  11.3790  11.6121
    12.4318

          k = 0.3464 0.2000-0.0000 (  6622 PWs)   bands (ev):

   -12.6577 -12.6556  -6.6784  -6.6695  -0.7226  -0.5322   0.7486   0.8393
     1.0604   1.2923   1.4735   2.1305   2.7379   3.4991   3.5111   3.7087
     5.6549   5.7540   9.6154   9.6480  10.1884  10.4514  11.2987  11.4906
    12.3677

          k = 0.3656 0.2111-0.0000 (  6618 PWs)   bands (ev):

   -12.6285 -12.6265  -6.5711  -6.5635  -0.7729  -0.6023   0.6913   0.7301
     1.0687   1.1659   1.4097   2.2342   2.7985   3.3021   3.3082   3.6979
     5.6169   5.8423   9.4534   9.4561  10.1066  10.6270  11.2355  11.3818
    12.3112

          k = 0.3849 0.2223-0.0000 (  6614 PWs)   bands (ev):

   -12.6013 -12.5993  -6.4672  -6.4607  -0.8109  -0.6588   0.6039   0.6205
     1.0018   1.0448   1.4697   2.3313   2.8658   3.1020   3.1102   3.6881
     5.5890   5.9203   9.2572   9.2839  10.0445  10.8021  11.1895  11.2936
    12.2620

          k = 0.4041 0.2334-0.0000 (  6610 PWs)   bands (ev):

   -12.5763 -12.5743  -6.3685  -6.3628  -0.8359  -0.7015   0.5090   0.5145
     0.8997   0.9323   1.5917   2.4118   2.9039   2.9143   2.9453   3.6748
     5.5749   5.9866   9.0585   9.1175  10.0034  10.9331  11.1603  11.2526
    12.2238

          k = 0.4234 0.2445-0.0000 (  6610 PWs)   bands (ev):

   -12.5537 -12.5518  -6.2765  -6.2716  -0.8476  -0.7304   0.4140   0.4166
     0.7984   0.8304   1.7310   2.4444   2.7111   2.7863   2.9962   3.6569
     5.5777   6.0407   8.8644   8.9595   9.9834  10.9568  11.1484  11.3072
    12.2049

          k = 0.4426 0.2556-0.0000 (  6610 PWs)   bands (ev):

   -12.5337 -12.5319  -6.1929  -6.1885  -0.8459  -0.7456   0.3228   0.3269
     0.7100   0.7420   1.8716   2.3702   2.5270   2.7505   3.0487   3.6343
     5.5994   6.0823   8.6792   8.8128   9.9837  10.9053  11.1542  11.4098
    12.2165

          k = 0.4619 0.2667-0.0000 (  6610 PWs)   bands (ev):

   -12.5166 -12.5147  -6.1192  -6.1150  -0.8313  -0.7476   0.2384   0.2409
     0.6411   0.6708   1.9987   2.2217   2.3620   2.7809   3.0941   3.6072
     5.6404   6.1118   8.5067   8.6798  10.0022  10.8313  11.1783  11.4961
    12.2216

          k = 0.4811 0.2778-0.0000 (  6612 PWs)   bands (ev):

   -12.5023 -12.5004  -6.0564  -6.0524  -0.8045  -0.7370   0.1548   0.1599
     0.5969   0.6215   2.0530   2.0580   2.2731   2.8152   3.1362   3.5758
     5.6988   6.1297   8.3509   8.5628  10.0359  10.7480  11.2212  11.5565
    12.1311

          k = 0.5004 0.2889-0.0000 (  6596 PWs)   bands (ev):

   -12.4908 -12.4890  -6.0054  -6.0015  -0.7673  -0.7150   0.0693   0.0834
     0.5795   0.5975   1.8968   1.9587   2.3377   2.8310   3.1804   3.5407
     5.7702   6.1366   8.2155   8.4644  10.0811  10.6584  11.2828  11.6045
    12.0456

          k = 0.5196 0.3000-0.0000 (  6598 PWs)   bands (ev):

   -12.4822 -12.4804  -5.9665  -5.9627  -0.7223  -0.6840  -0.0147   0.0100
     0.5865   0.5985   1.7497   1.8311   2.4403   2.8228   3.2288   3.5024
     5.8485   6.1326   8.1049   8.3873  10.1339  10.5651  11.3613  11.6553
    11.9651

          k = 0.5389 0.3112-0.0000 (  6578 PWs)   bands (ev):

   -12.4763 -12.4744  -5.9396  -5.9358  -0.6744  -0.6486  -0.0914  -0.0563
     0.6103   0.6185   1.6250   1.7192   2.5375   2.7933   3.2793   3.4616
     5.9261   6.1172   8.0230   8.3335  10.1914  10.4721  11.4517  11.7168
    11.8913

          k = 0.5581 0.3223-0.0000 (  6578 PWs)   bands (ev):

   -12.4729 -12.4710  -5.9242  -5.9204  -0.6325  -0.6186  -0.1498  -0.1066
     0.6381   0.6441   1.5364   1.6404   2.6217   2.7475   3.3290   3.4190
     5.9953   6.0898   7.9730   8.3034  10.2513  10.3854  11.5391  11.7868
    11.8327

          k = 0.5773 0.3334-0.0000 (  6570 PWs)   bands (ev):

   -12.4718 -12.4699  -5.9193  -5.9155  -0.6110  -0.6093  -0.1729  -0.1266
     0.6521   0.6562   1.5027   1.6108   2.6900   2.6912   3.3748   3.3758
     6.0489   6.0511   7.9564   8.2946  10.3118  10.3139  11.5811  11.8208
    11.8218

          k = 0.5773 0.3223-0.0000 (  6578 PWs)   bands (ev):

   -12.4720 -12.4702  -5.9205  -5.9167  -0.6185  -0.6104  -0.1667  -0.1211
     0.6473   0.6529   1.5119   1.6188   2.6592   2.7192   3.3532   3.3968
     6.0256   6.0705   7.9604   8.2963  10.2849  10.3442  11.5707  11.7902
    11.8435

          k = 0.5773 0.3112-0.0000 (  6580 PWs)   bands (ev):

   -12.4728 -12.4709  -5.9237  -5.9200  -0.6353  -0.6191  -0.1485  -0.1047
     0.6329   0.6427   1.5393   1.6428   2.6264   2.7441   3.3310   3.4169
     5.9984   6.0862   7.9722   8.3004  10.2641  10.3763  11.5440  11.7386
    11.8766

          k = 0.5773 0.3000-0.0000 (  6584 PWs)   bands (ev):

   -12.4740 -12.4721  -5.9290  -5.9252  -0.6591  -0.6351  -0.1198  -0.0784
     0.6099   0.6252   1.5842   1.6823   2.5927   2.7655   3.3089   3.4356
     5.9688   6.0971   7.9912   8.3053  10.2519  10.4091  11.5073  11.6800
    11.9119

          k = 0.5773 0.2889-0.0000 (  6584 PWs)   bands (ev):

   -12.4756 -12.4737  -5.9360  -5.9322  -0.6882  -0.6570  -0.0826  -0.0440
     0.5803   0.6012   1.6446   1.7359   2.5584   2.7836   3.2868   3.4530
     5.9369   6.1033   8.0167   8.3094  10.2496  10.4428  11.4641  11.6193
    11.9438

          k = 0.5773 0.2778-0.0000 (  6588 PWs)   bands (ev):

   -12.4775 -12.4757  -5.9445  -5.9407  -0.7206  -0.6830  -0.0389  -0.0035
     0.5461   0.5721   1.7184   1.8017   2.5237   2.7988   3.2649   3.4689
     5.9031   6.1052   8.0479   8.3111  10.2582  10.4777  11.4159  11.5585
    11.9691

          k = 0.5773 0.2667-0.0000 (  6588 PWs)   bands (ev):

   -12.4798 -12.4780  -5.9545  -5.9506  -0.7551  -0.7119   0.0098   0.0412
     0.5097   0.5394   1.8035   1.8778   2.4889   2.8117   3.2432   3.4836
     5.8679   6.1031   8.0839   8.3089  10.2786  10.5138  11.3634  11.4985
    11.9865

          k = 0.5773 0.2556-0.0000 (  6586 PWs)   bands (ev):

   -12.4824 -12.4806  -5.9656  -5.9617  -0.7908  -0.7424   0.0620   0.0876
     0.4735   0.5048   1.8981   1.9621   2.4542   2.8227   3.2218   3.4970
     5.8315   6.0975   8.1237   8.3015  10.3110  10.5514  11.3069  11.4398
    11.9960

          k = 0.5773 0.2445-0.0000 (  6586 PWs)   bands (ev):

   -12.4853 -12.4834  -5.9776  -5.9737  -0.8268  -0.7739   0.1162   0.1328
     0.4409   0.4698   2.0006   2.0527   2.4200   2.8327   3.2009   3.5091
     5.7944   6.0889   8.1662   8.2881  10.3551  10.5904  11.2466  11.3830
    11.9988

          k = 0.5773 0.2334-0.0000 (  6590 PWs)   bands (ev):

   -12.4883 -12.4865  -5.9905  -5.9865  -0.8628  -0.8057   0.1696   0.1718
     0.4174   0.4368   2.1097   2.1472   2.3862   2.8427   3.1806   3.5203
     5.7568   6.0777   8.2104   8.2685  10.4100  10.6309  11.1828  11.3285
    11.9970

          k = 0.5773 0.2223-0.0000 (  6610 PWs)   bands (ev):

   -12.4915 -12.4897  -6.0039  -5.9999  -0.8982  -0.8374   0.1928   0.2200
     0.4094   0.4135   2.2241   2.2431   2.3531   2.8541   3.1615   3.5305
     5.7191   6.0646   8.2426   8.2553  10.4738  10.6727  11.1160  11.2769
    11.9924

          k = 0.5773 0.2111-0.0000 (  6598 PWs)   bands (ev):

   -12.4949 -12.4931  -6.0178  -6.0137  -0.9328  -0.8685   0.1915   0.2529
     0.4021   0.4334   2.3208   2.3363   2.3437   2.8688   3.1443   3.5399
     5.6816   6.0498   8.2111   8.2998  10.5438  10.7154  11.0466  11.2290
    11.9870

          k = 0.5773 0.2000-0.0000 (  6594 PWs)   bands (ev):

   -12.4983 -12.4965  -6.0319  -6.0278  -0.9664  -0.8990   0.1721   0.2548
     0.4271   0.4741   2.2897   2.4242   2.4653   2.8891   3.1306   3.5490
     5.6446   6.0339   8.1742   8.3431  10.6159  10.7585  10.9756  11.1864
    11.9820

          k = 0.5773 0.1889-0.0000 (  6610 PWs)   bands (ev):

   -12.5018 -12.5000  -6.0461  -6.0419  -0.9988  -0.9285   0.1437   0.2345
     0.4760   0.5257   2.2595   2.4995   2.5894   2.9160   3.1245   3.5579
     5.6083   6.0171   8.1330   8.3843  10.6839  10.8001  10.9047  11.1514
    11.9775

          k = 0.5773 0.1778-0.0000 (  6610 PWs)   bands (ev):

   -12.5054 -12.5035  -6.0603  -6.0560  -1.0299  -0.9568   0.1119   0.2064
     0.5341   0.5823   2.2307   2.5578   2.7145   2.9446   3.1353   3.5672
     5.5729   5.9999   8.0882   8.4226  10.7390  10.8149  10.8594  11.1278
    11.9720

          k = 0.5773 0.1667-0.0000 (  6614 PWs)   bands (ev):

   -12.5089 -12.5070  -6.0743  -6.0699  -1.0595  -0.9839   0.0793   0.1764
     0.5955   0.6412   2.2031   2.5978   2.8389   2.9622   3.1763   3.5778
     5.5387   5.9825   8.0406   8.4574  10.7511  10.7706  10.8913  11.1188
    11.9601

          k = 0.5773 0.1556-0.0000 (  6614 PWs)   bands (ev):

   -12.5123 -12.5105  -6.0879  -6.0835  -1.0876  -1.0096   0.0472   0.1465
     0.6579   0.7005   2.1769   2.6227   2.9606   2.9637   3.2494   3.5907
     5.5057   5.9651   7.9910   8.4882  10.6804  10.7735  10.9289  11.1200
    11.9291

          k = 0.5773 0.1445-0.0000 (  6622 PWs)   bands (ev):

   -12.5157 -12.5138  -6.1012  -6.0966  -1.1140  -1.0339   0.0162   0.1176
     0.7199   0.7594   2.1522   2.6369   2.9544   3.0771   3.3434   3.6082
     5.4742   5.9481   7.9404   8.5146  10.6107  10.7514  10.9639  11.1170
    11.8605

          k = 0.5773 0.1334-0.0000 (  6618 PWs)   bands (ev):

   -12.5189 -12.5171  -6.1138  -6.1092  -1.1387  -1.0566  -0.0132   0.0901
     0.7807   0.8171   2.1290   2.6442   2.9404   3.1837   3.4482   3.6335
     5.4444   5.9316   7.8893   8.5362  10.5435  10.7110  10.9951  11.0974
    11.7486

          k = 0.5773 0.1222-0.0000 (  6622 PWs)   bands (ev):

   -12.5220 -12.5202  -6.1258  -6.1211  -1.1616  -1.0777  -0.0407   0.0644
     0.8397   0.8728   2.1075   2.6471   2.9243   3.2746   3.5579   3.6716
     5.4162   5.9158   7.8385   8.5531  10.4796  10.6562  11.0221  11.0602
    11.6101

          k = 0.5773 0.1111-0.0000 (  6616 PWs)   bands (ev):

   -12.5249 -12.5231  -6.1371  -6.1323  -1.1827  -1.0971  -0.0661   0.0406
     0.8962   0.9259   2.0876   2.6474   2.9075   3.3444   3.6684   3.7270
     5.3900   5.9009   7.7888   8.5652  10.4196  10.5890  11.0133  11.0447
    11.4628

          k = 0.5773 0.1000-0.0000 (  6612 PWs)   bands (ev):

   -12.5276 -12.5258  -6.1475  -6.1427  -1.2019  -1.1148  -0.0894   0.0188
     0.9497   0.9760   2.0694   2.6461   2.8906   3.3920   3.7771   3.7995
     5.3657   5.8870   7.7407   8.5728  10.3642  10.5112  10.9654  11.0630
    11.3176

          k = 0.5773 0.0889-0.0000 (  6604 PWs)   bands (ev):

   -12.5301 -12.5283  -6.1570  -6.1521  -1.2192  -1.1308  -0.1104  -0.0008
     0.9997   1.0225   2.0531   2.6438   2.8742   3.4221   3.8802   3.8847
     5.3434   5.8741   7.6950   8.5761  10.3138  10.4262  10.9217  11.0758
    11.1815

          k = 0.5773 0.0778-0.0000 (  6612 PWs)   bands (ev):

   -12.5324 -12.5305  -6.1656  -6.1606  -1.2345  -1.1450  -0.1291  -0.0182
     1.0455   1.0649   2.0385   2.6411   2.8587   3.4407   3.9696   3.9810
     5.3234   5.8625   7.6524   8.5757  10.2687  10.3383  10.8843  11.0425
    11.0993

          k = 0.5773 0.0667-0.0000 (  6612 PWs)   bands (ev):

   -12.5344 -12.5325  -6.1731  -6.1681  -1.2479  -1.1573  -0.1454  -0.0334
     1.0866   1.1027   2.0258   2.6383   2.8445   3.4523   4.0545   4.0715
     5.3056   5.8523   7.6134   8.5724  10.2293  10.2522  10.8535  10.9340
    11.1029

          k = 0.5773 0.0556-0.0000 (  6614 PWs)   bands (ev):

   -12.5361 -12.5342  -6.1796  -6.1745  -1.2592  -1.1678  -0.1592  -0.0464
     1.1225   1.1356   2.0150   2.6355   2.8317   3.4596   4.1327   4.1522
     5.2902   5.8434   7.5788   8.5670  10.1723  10.1957  10.8284  10.8359
    11.1089

          k = 0.5773 0.0445-0.0000 (  6616 PWs)   bands (ev):

   -12.5375 -12.5357  -6.1849  -6.1798  -1.2685  -1.1764  -0.1706  -0.0570
     1.1526   1.1630   2.0061   2.6331   2.8208   3.4642   4.2008   4.2214
     5.2774   5.8360   7.5493   8.5605  10.1021  10.1681  10.7535  10.8089
    11.1137

          k = 0.5773 0.0333-0.0000 (  6620 PWs)   bands (ev):

   -12.5386 -12.5368  -6.1891  -6.1840  -1.2757  -1.1831  -0.1794  -0.0653
     1.1766   1.1848   1.9991   2.6311   2.8120   3.4672   4.2565   4.2772
     5.2672   5.8302   7.5255   8.5540  10.0446  10.1466  10.6884  10.7941
    11.1171

          k = 0.5773 0.0222-0.0000 (  6616 PWs)   bands (ev):

   -12.5395 -12.5376  -6.1921  -6.1869  -1.2809  -1.1879  -0.1858  -0.0712
     1.1940   1.2005   1.9941   2.6296   2.8056   3.4689   4.2978   4.3183
     5.2597   5.8260   7.5080   8.5485  10.0019  10.1312  10.6414  10.7838
    11.1194

          k = 0.5773 0.0111-0.0000 (  6626 PWs)   bands (ev):

   -12.5399 -12.5381  -6.1939  -6.1887  -1.2840  -1.1908  -0.1896  -0.0747
     1.2046   1.2100   1.9911   2.6287   2.8016   3.4699   4.3231   4.3434
     5.2552   5.8235   7.4973   8.5448   9.9757  10.1220  10.6130  10.7776
    11.1207

          k = 0.5773 0.0000-0.0000 (  6626 PWs)   bands (ev):

   -12.5401 -12.5382  -6.1945  -6.1893  -1.2851  -1.1917  -0.1908  -0.0759
     1.2081   1.2132   1.9901   2.6283   2.8003   3.4702   4.3317   4.3519
     5.2537   5.8226   7.4937   8.5435   9.9669  10.1189  10.6036  10.7756
    11.1212

          k = 0.5581 0.0000-0.0000 (  6622 PWs)   bands (ev):

   -12.5417 -12.5398  -6.2017  -6.1965  -1.2808  -1.1857  -0.1770  -0.0627
     1.2094   1.2145   1.9706   2.6261   2.7957   3.4748   4.3346   4.3548
     5.2528   5.8281   7.5038   8.5539   9.9722  10.1193  10.6055  10.7894
    11.1209

          k = 0.5389 0.0000-0.0000 (  6624 PWs)   bands (ev):

   -12.5465 -12.5446  -6.2230  -6.2177  -1.2678  -1.1679  -0.1360  -0.0235
     1.2132   1.2183   1.9156   2.6149   2.7843   3.4878   4.3434   4.3635
     5.2519   5.8419   7.5349   8.5850   9.9880  10.1205  10.6138  10.8281
    11.1200

          k = 0.5196 0.0000-0.0000 (  6624 PWs)   bands (ev):

   -12.5544 -12.5525  -6.2578  -6.2524  -1.2458  -1.1387  -0.0686   0.0410
     1.2196   1.2246   1.8334   2.5864   2.7704   3.5065   4.3581   4.3780
     5.2553   5.8575   7.5887   8.6361  10.0132  10.1223  10.6331  10.8864
    11.1187

          k = 0.5004 0.0000-0.0000 (  6608 PWs)   bands (ev):

   -12.5653 -12.5634  -6.3049  -6.2993  -1.2146  -1.0986   0.0236   0.1292
     1.2284   1.2333   1.7325   2.5381   2.7537   3.5282   4.3785   4.3981
     5.2670   5.8677   7.6672   8.7064  10.0441  10.1265  10.6665  10.9597
    11.1175

          k = 0.4811 0.0000-0.0000 (  6598 PWs)   bands (ev):

   -12.5791 -12.5772  -6.3631  -6.3571  -1.1743  -1.0482   0.1385   0.2392
     1.2396   1.2444   1.6200   2.4738   2.7305   3.5502   4.4046   4.4239
     5.2894   5.8672   7.7713   8.7950  10.0685  10.1426  10.7154  11.0411
    11.1207

          k = 0.4619 0.0000-0.0000 (  6606 PWs)   bands (ev):

   -12.5955 -12.5936  -6.4307  -6.4243  -1.1251  -0.9879   0.2732   0.3683
     1.2530   1.2578   1.5024   2.3982   2.6985   3.5706   4.4362   4.4552
     5.3221   5.8535   7.9002   8.9008  10.0696  10.1840  10.7799  11.0938
    11.1647

          k = 0.4426 0.0000-0.0000 (  6610 PWs)   bands (ev):

   -12.6144 -12.6125  -6.5062  -6.4992  -1.0673  -0.9180   0.4232   0.5129
     1.2687   1.2733   1.3863   2.3153   2.6581   3.5883   4.4732   4.4917
     5.3629   5.8269   8.0514   9.0231  10.0506  10.2432  10.8592  11.1053
    11.2628

          k = 0.4234 0.0000-0.0000 (  6615 PWs)   bands (ev):

   -12.6355 -12.6335  -6.5880  -6.5801  -1.0014  -0.8390   0.5792   0.6680
     1.2833   1.2864   1.2909   2.2277   2.6123   3.6023   4.5154   4.5335
     5.4074   5.7905   8.2210   9.1609  10.0153  10.3119  10.9515  11.1200
    11.3735

          k = 0.4041 0.0000-0.0000 (  6621 PWs)   bands (ev):

   -12.6585 -12.6565  -6.6744  -6.6655  -0.9282  -0.7512   0.7109   0.8303
     1.2226   1.3059   1.3103   2.1380   2.5654   3.6125   4.5626   4.5801
     5.4481   5.7509   8.4043   9.3134   9.9636  10.3860  11.0501  11.1534
    11.4886

          k = 0.3849 0.0000-0.0000 (  6625 PWs)   bands (ev):

   -12.6832 -12.6811  -6.7639  -6.7540  -0.8484  -0.6550   0.7510   1.0027
     1.2617   1.3271   1.3314   2.0482   2.5240   3.6188   4.6144   4.6314
     5.4707   5.7217   8.5952   9.4791   9.8969  10.4625  11.1340  11.2302
    11.6043

          k = 0.3656 0.0000-0.0000 (  6621 PWs)   bands (ev):

   -12.7092 -12.7070  -6.8553  -6.8441  -0.7632  -0.5510   0.6942   1.1779
     1.3499   1.3539   1.4022   1.9616   2.4970   3.6217   4.6707   4.6870
     5.4568   5.7210   8.7852   9.6544   9.8226  10.5384  11.2020  11.3530
    11.7160

          k = 0.3464 0.0000-0.0000 (  6631 PWs)   bands (ev):

   -12.7362 -12.7340  -6.9472  -6.9348  -0.6734  -0.4395   0.5976   1.3384
     1.3739   1.3778   1.5829   1.8872   2.4973   3.6217   4.7310   4.7467
     5.4064   5.7489   8.9587   9.7316   9.8596  10.6108  11.2780  11.4972
    11.8190

          k = 0.3272 0.0000-0.0000 (  6631 PWs)   bands (ev):

   -12.7638 -12.7616  -7.0386  -7.0250  -0.5805  -0.3213   0.4895   1.3989
     1.4026   1.4654   1.7056   1.8973   2.5413   3.6199   4.7949   4.8099
     5.3349   5.7901   9.0822   9.6953  10.0526  10.6781  11.3687  11.6526
    11.9098

          k = 0.3079 0.0000-0.0000 (  6631 PWs)   bands (ev):

   -12.7919 -12.7896  -7.1286  -7.1136  -0.4858  -0.1968   0.3796   1.4248
     1.4283   1.5440   1.6701   2.0829   2.6419   3.6178   4.8620   4.8763
     5.2529   5.8347   9.1068   9.7337  10.2550  10.7416  11.4732  11.8095
    11.9942

          k = 0.2887 0.0000-0.0000 (  6629 PWs)   bands (ev):

   -12.8201 -12.8176  -7.2162  -7.2000  -0.3911  -0.0667   0.2718   1.4511
     1.4545   1.5647   1.6165   2.3078   2.7983   3.6178   4.9317   4.9452
     5.1657   5.8781   9.0347   9.8429  10.4555  10.8102  11.5871  11.9448
    12.1009

          k = 0.2694 0.0000-0.0000 (  6629 PWs)   bands (ev):

   -12.8480 -12.8455  -7.3008  -7.2834  -0.2981   0.0680   0.1682   1.4777
     1.4809   1.5187   1.5972   2.5342   2.9976   3.6241   5.0034   5.0162
     5.0766   5.9185   8.9118   9.9668  10.6381  10.9064  11.7026  12.0464
    12.2547

          k = 0.2502 0.0000-0.0000 (  6635 PWs)   bands (ev):

   -12.8753 -12.8727  -7.3818  -7.3631  -0.2093   0.0691   0.2078   1.4588
     1.5042   1.5072   1.5788   2.7473   3.2250   3.6443   4.9886   5.0765
     5.0885   5.9550   8.7668  10.0631  10.7888  11.0569  11.8101  12.1512
    12.4305

          k = 0.2309 0.0000-0.0000 (  6631 PWs)   bands (ev):

   -12.9018 -12.8992  -7.4585  -7.4387  -0.1285  -0.0214   0.3501   1.4024
     1.5304   1.5333   1.5564   2.9293   3.4689   3.6913   4.9050   5.1501
     5.1615   5.9871   8.6121  10.1110  10.9271  11.2502  11.9059  12.2815
    12.6053

          k = 0.2117 0.0000-0.0000 (  6629 PWs)   bands (ev):

   -12.9273 -12.9245  -7.5305  -7.5096  -0.1190  -0.0426   0.4949   1.3511
     1.5361   1.5560   1.5587   3.0601   3.7163   3.7833   4.8315   5.2235
     5.2342   6.0148   8.4545  10.1112  11.0731  11.4593  11.9956  12.4348
    12.7628

          k = 0.1924 0.0000-0.0000 (  6613 PWs)   bands (ev):

   -12.9514 -12.9485  -7.5974  -7.5755  -0.1952   0.0185   0.6412   1.3049
     1.5229   1.5805   1.5831   3.1326   3.8868   3.9908   4.7780   5.2957
     5.3058   6.0381   8.2981  10.0770  11.2231  11.6697  12.0878  12.5982
    12.8856

          k = 0.1732 0.0000-0.0000 (  6615 PWs)   bands (ev):

   -12.9739 -12.9710  -7.6589  -7.6360  -0.2678   0.0716   0.7876   1.2629
     1.5203   1.6039   1.6063   3.1593   4.0109   4.2458   4.7632   5.3658
     5.3753   6.0571   8.1462  10.0222  11.3656  11.8732  12.1871  12.7500
    12.9584

          k = 0.1540 0.0000-0.0000 (  6615 PWs)   bands (ev):

   -12.9946 -12.9916  -7.7146  -7.6909  -0.3338   0.1134   0.9329   1.2247
     1.5292   1.6256   1.6280   3.1573   4.0910   4.4980   4.8115   5.4328
     5.4417   6.0721   8.0016   9.9568  11.4914  12.0607  12.2916  12.8442
    12.9897

          k = 0.1347 0.0000-0.0000 (  6635 PWs)   bands (ev):

   -13.0134 -13.0103  -7.7643  -7.7398  -0.3924   0.1442   1.0752   1.1901
     1.5488   1.6456   1.6479   3.1374   4.1118   4.7414   4.9270   5.4954
     5.5039   6.0833   7.8668   9.8880  11.5957  12.2138  12.3867  12.8463
    12.9936

          k = 0.1155 0.0000-0.0000 (  6645 PWs)   bands (ev):

   -13.0300 -13.0269  -7.8077  -7.7826  -0.4436   0.1653   1.1584   1.2134
     1.5766   1.6634   1.6657   3.1060   4.0921   4.9709   5.0825   5.5527
     5.5608   6.0910   7.7441   9.8207  11.6783  12.2887  12.4409  12.8401
    12.9669

          k = 0.0962 0.0000-0.0000 (  6653 PWs)   bands (ev):

   -13.0443 -13.0411  -7.8448  -7.8191  -0.4871   0.1787   1.1317   1.3430
     1.6090   1.6790   1.6812   3.0667   4.0554   5.1811   5.2482   5.6035
     5.6113   6.0958   7.6358   9.7585  11.7414  12.2483  12.4209  12.8862
    12.9940

          k = 0.0770 0.0000-0.0000 (  6643 PWs)   bands (ev):

   -13.0562 -13.0530  -7.8753  -7.8492  -0.5229   0.1864   1.1091   1.4618
     1.6420   1.6920   1.6942   3.0230   4.0158   5.3662   5.4047   5.6468
     5.6543   6.0981   7.5439   9.7040  11.7877  12.1434  12.3322  12.9700
    13.0873

          k = 0.0577 0.0000-0.0000 (  6649 PWs)   bands (ev):

   -13.0655 -13.0623  -7.8992  -7.8727  -0.5507   0.1904   1.0911   1.5648
     1.6719   1.7024   1.7045   2.9790   3.9806   5.5199   5.5391   5.6816
     5.6889   6.0986   7.4700   9.6594  11.8192  12.0300  12.2264  13.0611
    13.1945

          k = 0.0385 0.0000-0.0000 (  6651 PWs)   bands (ev):

   -13.0723 -13.0690  -7.9162  -7.8895  -0.5707   0.1921   1.0781   1.6461
     1.6957   1.7099   1.7119   2.9402   3.9537   5.6353   5.6425   5.7070
     5.7142   6.0981   7.4159   9.6262  11.8375  11.9357  12.1386  13.1372
    13.2363

          k = 0.0192 0.0000-0.0000 (  6657 PWs)   bands (ev):

   -13.0763 -13.0730  -7.9265  -7.8996  -0.5827   0.1928   1.0703   1.6988
     1.7111   1.7144   1.7165   2.9129   3.9369   5.7048   5.7102   5.7226
     5.7297   6.0973   7.3827   9.6058  11.8447  11.8742  12.0840  13.1868
    13.2130

          k = 0.0000 0.0000 0.0000 (  6657 PWs)   bands (ev):

   -13.0777 -13.0744  -7.9300  -7.9030  -0.5867   0.1929   1.0676   1.7157
     1.7159   1.7178   1.7180   2.9031   3.9313   5.7273   5.7278   5.7344
     5.7349   6.0969   7.3716   9.5989  11.8458  11.8531  12.0660  13.2039
    13.2050

     Writing all to output data dir ./work/Al2SO.save/
 
     init_run     :      8.20s CPU      8.30s WALL (       1 calls)
     electrons    :    133.77s CPU    152.42s WALL (       1 calls)

     Called by init_run:
     wfcinit      :      0.00s CPU      0.00s WALL (       1 calls)
     potinit      :      7.70s CPU      7.73s WALL (       1 calls)
     hinit0       :      0.39s CPU      0.43s WALL (       1 calls)

     Called by electrons:
     c_bands      :    133.77s CPU    152.42s WALL (       1 calls)
     v_of_rho     :      7.50s CPU      7.52s WALL (       1 calls)
     newd         :      0.06s CPU      0.08s WALL (       1 calls)
     PAW_pot      :      0.19s CPU      0.20s WALL (       1 calls)
     vdW_kernel   :      7.44s CPU      7.44s WALL (       1 calls)

     Called by c_bands:
     init_us_2    :      0.06s CPU      0.07s WALL (      91 calls)
     init_us_2:cp :      0.06s CPU      0.07s WALL (      91 calls)
     cegterg      :    129.91s CPU    147.99s WALL (     462 calls)

     Called by *egterg:
     cdiaghg      :      6.74s CPU      7.13s WALL (    8728 calls)
     h_psi        :     93.00s CPU    109.85s WALL (    9190 calls)
     s_psi        :      8.66s CPU      8.96s WALL (    9190 calls)
     g_psi        :      0.33s CPU      0.34s WALL (    8637 calls)

     Called by h_psi:
     h_psi:calbec :      9.62s CPU     11.39s WALL (    9190 calls)
     vloc_psi     :     70.85s CPU     84.91s WALL (    9190 calls)
     add_vuspsi   :     12.10s CPU     13.11s WALL (    9190 calls)

     General routines
     calbec       :      9.60s CPU     11.37s WALL (    9190 calls)
     fft          :      0.04s CPU      0.05s WALL (      62 calls)
     fftw         :     66.72s CPU     80.08s WALL (  219212 calls)
     davcio       :      0.04s CPU      0.07s WALL (     182 calls)
 
     Parallel routines
 
     PWSCF        :   2m22.67s CPU   2m41.90s WALL

 
   This run was terminated on:  13:48:36  12Jun2023            

=------------------------------------------------------------------------------=
   JOB DONE.
=------------------------------------------------------------------------------=
