
     Program PWSCF v.7.1 starts on 12Jun2023 at 15: 3:46 

     This program is part of the open-source Quantum ESPRESSO suite
     for quantum simulation of materials; please cite
         "P. Giannozzi et al., J. Phys.:Condens. Matter 21 395502 (2009);
         "P. Giannozzi et al., J. Phys.:Condens. Matter 29 465901 (2017);
         "P. Giannozzi et al., J. Chem. Phys. 152 154105 (2020);
          URL http://www.quantum-espresso.org", 
     in publications or presentations arising from this work. More details at
     http://www.quantum-espresso.org/quote

     Parallel version (MPI), running on    18 processors

     MPI processes distributed on     1 nodes
     102430 MiB available memory on the printing compute node when the environment starts
 
     Waiting for input...
     Reading input from standard input

     Current dimensions of program PWSCF are:
     Max number of different atomic species (ntypx) = 10
     Max number of k-points (npk) =  40000
     Max angular momentum in pseudopotentials (lmaxx) =  4
     Message from routine volume:
     axis vectors are left-handed
     file Al.pbe-n-kjpaw_psl.1.0.0.UPF: wavefunction(s)  3S 3P renormalized
     file O.pbe-n-kjpaw_psl.1.0.0.UPF: wavefunction(s)  2S 2P renormalized
     file S.pbe-n-kjpaw_psl.1.0.0.UPF: wavefunction(s)  3S 3P renormalized

     IMPORTANT: XC functional enforced from input :
     Exchange-correlation= VDW-DF2-B86R
                           (   1   4  26   0   2   0   0)
     Any further DFT definition will be discarded
     Please, verify this is what you really want

     Message from routine setup:
     using ibrav=0 with symmetry is DISCOURAGED, use correct ibrav instead
 
     R & G space division:  proc/nbgrp/npool/nimage =      18
     Subspace diagonalization in iterative solution of the eigenvalue problem:
     a serial algorithm will be used

 
     Parallelization info
     --------------------
     sticks:   dense  smooth     PW     G-vecs:    dense   smooth      PW
     Min          35      35     11                 2985     2985     529
     Max          36      36     12                 2994     2994     542
     Sum         637     637    199                53817    53817    9595
 
     Using Slab Decomposition
 


     bravais-lattice index     =            0
     lattice parameter (alat)  =       6.1564  a.u.
     unit-cell volume          =     857.2901 (a.u.)^3
     number of atoms/cell      =            8
     number of atomic types    =            3
     number of electrons       =        36.00
     number of Kohn-Sham states=           25
     kinetic-energy cutoff     =      60.0000  Ry
     charge density cutoff     =     240.0000  Ry
     scf convergence threshold =      1.0E-08
     mixing beta               =       0.5000
     number of iterations used =            8  plain     mixing
     Exchange-correlation= VDW-DF2-B86R
                           (   1   4  26   0   2   0   0)

     celldm(1)=   6.156363  celldm(2)=   0.000000  celldm(3)=   0.000000
     celldm(4)=   0.000000  celldm(5)=   0.000000  celldm(6)=   0.000000

     crystal axes: (cart. coord. in units of alat)
               a(1) = (   0.866118   0.499839   0.000000 )  
               a(2) = (   0.866118  -0.499839   0.000000 )  
               a(3) = (   0.000000   0.000000   4.243436 )  

     reciprocal axes: (cart. coord. in units 2 pi/alat)
               b(1) = (  0.577288  1.000322  0.000000 )  
               b(2) = (  0.577288 -1.000322  0.000000 )  
               b(3) = (  0.000000  0.000000  0.235658 )  


     PseudoPot. # 1 for Al read from file:
     /home/mainadmin/research/danu/pseudo/Al.pbe-n-kjpaw_psl.1.0.0.UPF
     MD5 check sum: 502b6b27b9c6270cab5dd1084b96fa6d
     Pseudo is Projector augmented-wave + core cor, Zval =  3.0
     Generated using &quot;atomic&quot; code by A. Dal Corso  v.6.3
     Shape of augmentation charge: PSQ
     Using radial grid of 1135 points,  6 beta functions with: 
                l(1) =   0
                l(2) =   0
                l(3) =   1
                l(4) =   1
                l(5) =   2
                l(6) =   2
     Q(r) pseudized with 0 coefficients 


     PseudoPot. # 2 for O  read from file:
     /home/mainadmin/research/danu/pseudo/O.pbe-n-kjpaw_psl.1.0.0.UPF
     MD5 check sum: e99d9cef9b487d1ca56f5b95ecd0fd7a
     Pseudo is Projector augmented-wave + core cor, Zval =  6.0
     Generated using &quot;atomic&quot; code by A. Dal Corso  v.6.3
     Shape of augmentation charge: PSQ
     Using radial grid of 1095 points,  4 beta functions with: 
                l(1) =   0
                l(2) =   0
                l(3) =   1
                l(4) =   1
     Q(r) pseudized with 0 coefficients 


     PseudoPot. # 3 for S  read from file:
     /home/mainadmin/research/danu/pseudo/S.pbe-n-kjpaw_psl.1.0.0.UPF
     MD5 check sum: fb45dfebcf3e72a4e1bd4a866ec2e262
     Pseudo is Projector augmented-wave + core cor, Zval =  6.0
     Generated using &quot;atomic&quot; code by A. Dal Corso  v.6.3
     Shape of augmentation charge: PSQ
     Using radial grid of 1151 points,  6 beta functions with: 
                l(1) =   0
                l(2) =   0
                l(3) =   1
                l(4) =   1
                l(5) =   2
                l(6) =   2
     Q(r) pseudized with 0 coefficients 


     atomic species   valence    mass     pseudopotential
        Al             3.00    26.98100     Al( 1.00)
        O              6.00    15.99900     O ( 1.00)
        S              6.00    32.06500     S ( 1.00)

      2 Sym. Ops. (no inversion) found



   Cartesian axes

     site n.     atom                  positions (alat units)
         1           O   tau(   1) = (   0.5774121   0.0000000   0.0000000  )
         2           Al  tau(   2) = (   0.0000000   0.0000000   0.1305637  )
         3           Al  tau(   3) = (   0.0000000   0.0000000   0.9339928  )
         4           S   tau(   4) = (   0.5774121   0.0000000   1.3154094  )
         5           O   tau(   5) = (   1.1548243   0.0000000   2.1222735  )
         6           Al  tau(   6) = (   0.5774121   0.0000000   2.2490455  )
         7           Al  tau(   7) = (   0.5774121   0.0000000   3.0529687  )
         8           S   tau(   8) = (   1.1548243   0.0000000   3.4365719  )

     number of k points=   140

     Number of k-points >= 100: set verbosity='high' to print them.

     Dense  grid:    53817 G-vectors     FFT dimensions: (  32,  32, 135)

     Estimated max dynamical RAM per process >      35.17 MB

     Estimated total dynamical RAM >     633.08 MB

     Check: negative core charge=   -0.000003

     Initial potential from superposition of free atoms

     starting charge      35.9908, renormalised to      36.0000


     %%%%%%%%%%%%%%%%%%%%%%%%%%%%%%%%%%%%%%%%%%%%%%%%%%%%%%%%%%%%%%%%%%%%%%%%
     %                                                                      %
     % You are using vdW-DF, which was implemented by the Thonhauser group. %
     % Please cite the following two papers that made this development      %
     % possible and the two reviews that describe the various versions:     %
     %                                                                      %
     %   T. Thonhauser et al., PRL 115, 136402 (2015).                      %
     %   T. Thonhauser et al., PRB 76, 125112 (2007).                       %
     %   K. Berland et al., Rep. Prog. Phys. 78, 066501 (2015).             %
     %   D.C. Langreth et al., J. Phys.: Condens. Matter 21, 084203 (2009). %
     %                                                                      %
     % If you are calculating stress with vdW-DF, please also cite:         %
     %                                                                      %
     %   R. Sabatini et al., J. Phys.: Condens. Matter 24, 424209 (2012).   %
     %                                                                      %
     %%%%%%%%%%%%%%%%%%%%%%%%%%%%%%%%%%%%%%%%%%%%%%%%%%%%%%%%%%%%%%%%%%%%%%%%

     %%%%%%%%%%%%%%%%%%%%%%%%%%%%%%%%%%%%%%%%%%%%%%%%%%%%%%%%%%%%%%%%%%%%%%%%
     %                                                                      %
     %  vdW-DF NEWS:                                                        %
     %                                                                      %
     %  * vdW-DF3 is now available. DOI: 10.1021/acs.jctc.0c00471           %
     %    use with input_dft = 'vdW-DF3-opt1' or 'vdW-DF3-opt2'             %
     %                                                                      %
     %  * Unscreened and range-separated vdW-DF hybrid functionals          %
     %    DOI: 10.1063/1.4986522 and 10.1088/1361-648X/ac2ad2               %
     %    use with input_dft = 'vdW-DF-cx0' (etc) and 'vdW-DF-ahcx'         %
     %                                                                      %
     %%%%%%%%%%%%%%%%%%%%%%%%%%%%%%%%%%%%%%%%%%%%%%%%%%%%%%%%%%%%%%%%%%%%%%%%


     Starting wfcs are   32 randomized atomic wfcs
     Checking if some PAW data can be deallocated... 

     total cpu time spent up to now is        7.5 secs

     Self-consistent Calculation

     iteration #  1     ecut=    60.00 Ry     beta= 0.50
     Davidson diagonalization with overlap
     ethr =  1.00E-02,  avg # of iterations =  4.7

     total cpu time spent up to now is       17.6 secs

     total energy              =    -372.68831012 Ry
     estimated scf accuracy    <       1.24665651 Ry

     iteration #  2     ecut=    60.00 Ry     beta= 0.50
     Davidson diagonalization with overlap
     ethr =  3.46E-03,  avg # of iterations =  4.2

     total cpu time spent up to now is       27.0 secs

     total energy              =    -373.05077898 Ry
     estimated scf accuracy    <       0.67616823 Ry

     iteration #  3     ecut=    60.00 Ry     beta= 0.50
     Davidson diagonalization with overlap
     ethr =  1.88E-03,  avg # of iterations =  1.7

     total cpu time spent up to now is       34.0 secs

     total energy              =    -373.16598962 Ry
     estimated scf accuracy    <       0.04676212 Ry

     iteration #  4     ecut=    60.00 Ry     beta= 0.50
     Davidson diagonalization with overlap
     c_bands:  2 eigenvalues not converged
     ethr =  1.30E-04,  avg # of iterations =  8.5

     total cpu time spent up to now is       47.7 secs

     total energy              =    -373.20664703 Ry
     estimated scf accuracy    <       0.02719300 Ry

     iteration #  5     ecut=    60.00 Ry     beta= 0.50
     Davidson diagonalization with overlap
     c_bands:  1 eigenvalues not converged
     c_bands:  1 eigenvalues not converged
     c_bands:  1 eigenvalues not converged
     c_bands:  1 eigenvalues not converged
     c_bands:  1 eigenvalues not converged
     ethr =  7.55E-05,  avg # of iterations =  8.4

     total cpu time spent up to now is       58.3 secs

     total energy              =    -373.20821664 Ry
     estimated scf accuracy    <       0.03133573 Ry

     iteration #  6     ecut=    60.00 Ry     beta= 0.50
     Davidson diagonalization with overlap
     ethr =  7.55E-05,  avg # of iterations =  2.1

     total cpu time spent up to now is       65.6 secs

     total energy              =    -373.21230923 Ry
     estimated scf accuracy    <       0.00061967 Ry

     iteration #  7     ecut=    60.00 Ry     beta= 0.50
     Davidson diagonalization with overlap
     c_bands:  2 eigenvalues not converged
     c_bands:  1 eigenvalues not converged
     c_bands:  3 eigenvalues not converged
     c_bands:  1 eigenvalues not converged
     c_bands:  2 eigenvalues not converged
     c_bands:  2 eigenvalues not converged
     c_bands:  2 eigenvalues not converged
     c_bands:  1 eigenvalues not converged
     c_bands:  1 eigenvalues not converged
     c_bands:  1 eigenvalues not converged
     c_bands:  2 eigenvalues not converged
     c_bands:  1 eigenvalues not converged
     c_bands:  1 eigenvalues not converged
     c_bands:  2 eigenvalues not converged
     c_bands:  1 eigenvalues not converged
     c_bands:  1 eigenvalues not converged
     c_bands:  1 eigenvalues not converged
     c_bands:  1 eigenvalues not converged
     c_bands:  2 eigenvalues not converged
     c_bands:  1 eigenvalues not converged
     c_bands:  1 eigenvalues not converged
     c_bands:  1 eigenvalues not converged
     c_bands:  1 eigenvalues not converged
     c_bands:  1 eigenvalues not converged
     c_bands:  2 eigenvalues not converged
     c_bands:  1 eigenvalues not converged
     c_bands:  1 eigenvalues not converged
     c_bands:  1 eigenvalues not converged
     c_bands:  1 eigenvalues not converged
     c_bands:  1 eigenvalues not converged
     c_bands:  2 eigenvalues not converged
     c_bands:  1 eigenvalues not converged
     c_bands:  1 eigenvalues not converged
     c_bands:  1 eigenvalues not converged
     c_bands:  1 eigenvalues not converged
     c_bands:  1 eigenvalues not converged
     c_bands:  1 eigenvalues not converged
     c_bands:  1 eigenvalues not converged
     c_bands:  1 eigenvalues not converged
     c_bands:  1 eigenvalues not converged
     c_bands:  2 eigenvalues not converged
     c_bands:  2 eigenvalues not converged
     c_bands:  1 eigenvalues not converged
     c_bands:  1 eigenvalues not converged
     c_bands:  2 eigenvalues not converged
     c_bands:  1 eigenvalues not converged
     c_bands:  1 eigenvalues not converged
     c_bands:  2 eigenvalues not converged
     c_bands:  2 eigenvalues not converged
     c_bands:  1 eigenvalues not converged
     c_bands:  1 eigenvalues not converged
     c_bands:  1 eigenvalues not converged
     c_bands:  1 eigenvalues not converged
     c_bands:  1 eigenvalues not converged
     c_bands:  1 eigenvalues not converged
     c_bands:  1 eigenvalues not converged
     c_bands:  1 eigenvalues not converged
     c_bands:  1 eigenvalues not converged
     c_bands:  1 eigenvalues not converged
     c_bands:  1 eigenvalues not converged
     ethr =  1.72E-06,  avg # of iterations = 17.0

     total cpu time spent up to now is       83.9 secs

     total energy              =    -373.21279570 Ry
     estimated scf accuracy    <       0.00042512 Ry

     iteration #  8     ecut=    60.00 Ry     beta= 0.50
     Davidson diagonalization with overlap
     c_bands:  1 eigenvalues not converged
     c_bands:  1 eigenvalues not converged
     c_bands:  1 eigenvalues not converged
     c_bands:  1 eigenvalues not converged
     c_bands:  1 eigenvalues not converged
     c_bands:  1 eigenvalues not converged
     c_bands:  1 eigenvalues not converged
     c_bands:  1 eigenvalues not converged
     c_bands:  1 eigenvalues not converged
     ethr =  1.18E-06,  avg # of iterations =  4.6

     total cpu time spent up to now is       91.7 secs

     total energy              =    -373.21278607 Ry
     estimated scf accuracy    <       0.00009271 Ry

     iteration #  9     ecut=    60.00 Ry     beta= 0.50
     Davidson diagonalization with overlap
     ethr =  2.58E-07,  avg # of iterations =  5.0

     total cpu time spent up to now is      101.6 secs

     total energy              =    -373.21282986 Ry
     estimated scf accuracy    <       0.00003942 Ry

     iteration # 10     ecut=    60.00 Ry     beta= 0.50
     Davidson diagonalization with overlap
     ethr =  1.10E-07,  avg # of iterations =  1.4

     total cpu time spent up to now is      108.6 secs

     total energy              =    -373.21282546 Ry
     estimated scf accuracy    <       0.00001489 Ry

     iteration # 11     ecut=    60.00 Ry     beta= 0.50
     Davidson diagonalization with overlap
     ethr =  4.14E-08,  avg # of iterations =  5.0

     total cpu time spent up to now is      117.8 secs

     total energy              =    -373.21283082 Ry
     estimated scf accuracy    <       0.00000222 Ry

     iteration # 12     ecut=    60.00 Ry     beta= 0.50
     Davidson diagonalization with overlap
     ethr =  6.18E-09,  avg # of iterations =  4.2

     total cpu time spent up to now is      126.7 secs

     total energy              =    -373.21283164 Ry
     estimated scf accuracy    <       0.00000050 Ry

     iteration # 13     ecut=    60.00 Ry     beta= 0.50
     Davidson diagonalization with overlap
     ethr =  1.39E-09,  avg # of iterations =  3.5

     total cpu time spent up to now is      135.5 secs

     total energy              =    -373.21283156 Ry
     estimated scf accuracy    <       0.00000060 Ry

     iteration # 14     ecut=    60.00 Ry     beta= 0.50
     Davidson diagonalization with overlap
     ethr =  1.39E-09,  avg # of iterations =  2.0

     total cpu time spent up to now is      142.8 secs

     total energy              =    -373.21283156 Ry
     estimated scf accuracy    <       0.00000010 Ry

     iteration # 15     ecut=    60.00 Ry     beta= 0.50
     Davidson diagonalization with overlap
     ethr =  2.80E-10,  avg # of iterations =  4.8

     total cpu time spent up to now is      153.5 secs

     total energy              =    -373.21283164 Ry
     estimated scf accuracy    <       0.00000009 Ry

     iteration # 16     ecut=    60.00 Ry     beta= 0.50
     Davidson diagonalization with overlap
     ethr =  2.63E-10,  avg # of iterations =  1.0

     total cpu time spent up to now is      160.3 secs

     total energy              =    -373.21283162 Ry
     estimated scf accuracy    <       0.00000005 Ry

     iteration # 17     ecut=    60.00 Ry     beta= 0.50
     Davidson diagonalization with overlap
     ethr =  1.27E-10,  avg # of iterations =  4.4

     total cpu time spent up to now is      168.7 secs

     End of self-consistent calculation

     Number of k-points >= 100: set verbosity='high' to print the bands.

     highest occupied, lowest unoccupied level (ev):     5.9118    7.1710

!    total energy              =    -373.21283163 Ry
     total all-electron energy =     -3839.679974 Ry
     estimated scf accuracy    <          3.9E-10 Ry

     The total energy is the sum of the following terms:
     one-electron contribution =     -26.23409540 Ry
     hartree contribution      =      33.84323203 Ry
     xc contribution           =     -35.95141282 Ry
     ewald contribution        =     -96.12160487 Ry
     one-center paw contrib.   =    -248.74895057 Ry

     convergence has been achieved in  17 iterations

     Writing all to output data dir ./work/Al2SO.save/
 
     init_run     :      6.29s CPU      7.34s WALL (       1 calls)
     electrons    :    119.51s CPU    161.17s WALL (       1 calls)

     Called by init_run:
     wfcinit      :      2.07s CPU      3.08s WALL (       1 calls)
     potinit      :      4.07s CPU      4.09s WALL (       1 calls)
     hinit0       :      0.10s CPU      0.11s WALL (       1 calls)

     Called by electrons:
     c_bands      :    104.86s CPU    140.07s WALL (      17 calls)
     sum_band     :     12.20s CPU     18.31s WALL (      17 calls)
     v_of_rho     :      4.52s CPU      4.71s WALL (      18 calls)
     newd         :      0.59s CPU      0.61s WALL (      18 calls)
     PAW_pot      :      1.37s CPU      1.51s WALL (      18 calls)
     mix_rho      :      0.03s CPU      0.04s WALL (      17 calls)
     vdW_kernel   :      3.93s CPU      3.93s WALL (       1 calls)

     Called by c_bands:
     init_us_2    :      1.11s CPU      1.36s WALL (    4900 calls)
     init_us_2:cp :      1.10s CPU      1.35s WALL (    4900 calls)
     cegterg      :     96.17s CPU    131.05s WALL (    2380 calls)

     Called by *egterg:
     cdiaghg      :      6.67s CPU      7.57s WALL (   13926 calls)
     h_psi        :     74.98s CPU    107.68s WALL (   14066 calls)
     s_psi        :      4.41s CPU      5.19s WALL (   14066 calls)
     g_psi        :      0.17s CPU      0.18s WALL (   11546 calls)

     Called by h_psi:
     h_psi:calbec :      7.37s CPU     10.42s WALL (   14066 calls)
     vloc_psi     :     59.15s CPU     86.77s WALL (   14066 calls)
     add_vuspsi   :      8.09s CPU     10.08s WALL (   14066 calls)

     General routines
     calbec       :      8.51s CPU     12.18s WALL (   16446 calls)
     fft          :      0.27s CPU      0.40s WALL (    1098 calls)
     ffts         :      0.00s CPU      0.01s WALL (      17 calls)
     fftw         :     66.13s CPU     97.82s WALL (  398424 calls)
 
     Parallel routines
 
     PWSCF        :   2m 6.37s CPU   2m49.76s WALL

 
   This run was terminated on:  15: 6:36  12Jun2023            

=------------------------------------------------------------------------------=
   JOB DONE.
=------------------------------------------------------------------------------=
