
     Program PWSCF v.7.0 starts on 12Jun2023 at  7:47:16 

     This program is part of the open-source Quantum ESPRESSO suite
     for quantum simulation of materials; please cite
         "P. Giannozzi et al., J. Phys.:Condens. Matter 21 395502 (2009);
         "P. Giannozzi et al., J. Phys.:Condens. Matter 29 465901 (2017);
         "P. Giannozzi et al., J. Chem. Phys. 152 154105 (2020);
          URL http://www.quantum-espresso.org", 
     in publications or presentations arising from this work. More details at
     http://www.quantum-espresso.org/quote

     Parallel version (MPI), running on    10 processors

     MPI processes distributed on     1 nodes
     R & G space division:  proc/nbgrp/npool/nimage =      10
     36083 MiB available memory on the printing compute node when the environment starts
 
     Waiting for input...
     Reading input from standard input

     Current dimensions of program PWSCF are:
     Max number of different atomic species (ntypx) = 10
     Max number of k-points (npk) =  40000
     Max angular momentum in pseudopotentials (lmaxx) =  4
     Message from routine volume:
     axis vectors are left-handed
     file Al.pbe-n-kjpaw_psl.1.0.0.UPF: wavefunction(s)  3S 3P renormalized
     file O.pbe-n-kjpaw_psl.1.0.0.UPF: wavefunction(s)  2S 2P renormalized
     file S.pbe-n-kjpaw_psl.1.0.0.UPF: wavefunction(s)  3S 3P renormalized

     IMPORTANT: XC functional enforced from input :
     Exchange-correlation= VDW-DF2-B86R
                           (   1   4  26   0   2   0   0)
     Any further DFT definition will be discarded
     Please, verify this is what you really want

     Message from routine setup:
     using ibrav=0 with symmetry is DISCOURAGED, use correct ibrav instead

     Subspace diagonalization in iterative solution of the eigenvalue problem:
     a serial algorithm will be used

 
     Parallelization info
     --------------------
     sticks:   dense  smooth     PW     G-vecs:    dense   smooth      PW
     Min          62      62     19                 9614     9614    1695
     Max          63      63     20                 9626     9626    1716
     Sum         621     621    199                96189    96189   17133
 
     Using Slab Decomposition
 


     bravais-lattice index     =            0
     lattice parameter (alat)  =       6.1245  a.u.
     unit-cell volume          =    1535.6018 (a.u.)^3
     number of atoms/cell      =            4
     number of atomic types    =            3
     number of electrons       =        18.00
     number of Kohn-Sham states=           10
     kinetic-energy cutoff     =      60.0000  Ry
     charge density cutoff     =     240.0000  Ry
     scf convergence threshold =      1.0E-08
     mixing beta               =       0.5000
     number of iterations used =            8  plain     mixing
     Exchange-correlation= VDW-DF2-B86R
                           (   1   4  26   0   2   0   0)

     celldm(1)=   6.124520  celldm(2)=   0.000000  celldm(3)=   0.000000
     celldm(4)=   0.000000  celldm(5)=   0.000000  celldm(6)=   0.000000

     crystal axes: (cart. coord. in units of alat)
               a(1) = (   0.865761   0.500458   0.000000 )  
               a(2) = (   0.865761  -0.500458   0.000000 )  
               a(3) = (   0.000000   0.000000   7.713773 )  

     reciprocal axes: (cart. coord. in units 2 pi/alat)
               b(1) = (  0.577527  0.999084  0.000000 )  
               b(2) = (  0.577527 -0.999084  0.000000 )  
               b(3) = (  0.000000  0.000000  0.129638 )  


     PseudoPot. # 1 for Al read from file:
     /home/mainadmin/research/danu/pseudo/Al.pbe-n-kjpaw_psl.1.0.0.UPF
     MD5 check sum: 502b6b27b9c6270cab5dd1084b96fa6d
     Pseudo is Projector augmented-wave + core cor, Zval =  3.0
     Generated using &quot;atomic&quot; code by A. Dal Corso  v.6.3
     Shape of augmentation charge: PSQ
     Using radial grid of 1135 points,  6 beta functions with: 
                l(1) =   0
                l(2) =   0
                l(3) =   1
                l(4) =   1
                l(5) =   2
                l(6) =   2
     Q(r) pseudized with 0 coefficients 


     PseudoPot. # 2 for O  read from file:
     /home/mainadmin/research/danu/pseudo/O.pbe-n-kjpaw_psl.1.0.0.UPF
     MD5 check sum: e99d9cef9b487d1ca56f5b95ecd0fd7a
     Pseudo is Projector augmented-wave + core cor, Zval =  6.0
     Generated using &quot;atomic&quot; code by A. Dal Corso  v.6.3
     Shape of augmentation charge: PSQ
     Using radial grid of 1095 points,  4 beta functions with: 
                l(1) =   0
                l(2) =   0
                l(3) =   1
                l(4) =   1
     Q(r) pseudized with 0 coefficients 


     PseudoPot. # 3 for S  read from file:
     /home/mainadmin/research/danu/pseudo/S.pbe-n-kjpaw_psl.1.0.0.UPF
     MD5 check sum: fb45dfebcf3e72a4e1bd4a866ec2e262
     Pseudo is Projector augmented-wave + core cor, Zval =  6.0
     Generated using &quot;atomic&quot; code by A. Dal Corso  v.6.3
     Shape of augmentation charge: PSQ
     Using radial grid of 1151 points,  6 beta functions with: 
                l(1) =   0
                l(2) =   0
                l(3) =   1
                l(4) =   1
                l(5) =   2
                l(6) =   2
     Q(r) pseudized with 0 coefficients 


     atomic species   valence    mass     pseudopotential
        Al             3.00    26.98100     Al( 1.00)
        O              6.00    15.99900     O ( 1.00)
        S              6.00    32.06500     S ( 1.00)

      2 Sym. Ops. (no inversion) found



   Cartesian axes

     site n.     atom                  positions (alat units)
         1           O   tau(   1) = (   1.1544229   0.0000000   3.2464034  )
         2           Al  tau(   2) = (   0.5777197   0.0000000   3.4120502  )
         3           Al  tau(   3) = (   0.5767525   0.0000000   4.2159765  )
         4           S   tau(   4) = (   1.1541478   0.0000000   4.5934659  )

     number of k points=    49
                       cart. coord. in units 2pi/alat
        k(    1) = (   0.0000000   0.0000000   0.0000000), wk =   0.0118343
        k(    2) = (   0.0444251  -0.0768527   0.0000000), wk =   0.0473373
        k(    3) = (   0.0888503  -0.1537053   0.0000000), wk =   0.0473373
        k(    4) = (   0.1332754  -0.2305580   0.0000000), wk =   0.0473373
        k(    5) = (   0.1777005  -0.3074106   0.0000000), wk =   0.0473373
        k(    6) = (   0.2221257  -0.3842633   0.0000000), wk =   0.0473373
        k(    7) = (   0.2665508  -0.4611159   0.0000000), wk =   0.0473373
        k(    8) = (   0.0888503   0.0000000   0.0000000), wk =   0.0236686
        k(    9) = (   0.1332754  -0.0768527   0.0000000), wk =   0.0473373
        k(   10) = (   0.1777005  -0.1537053   0.0000000), wk =   0.0473373
        k(   11) = (   0.2221257  -0.2305580   0.0000000), wk =   0.0473373
        k(   12) = (   0.2665508  -0.3074106   0.0000000), wk =   0.0473373
        k(   13) = (   0.3109760  -0.3842633   0.0000000), wk =   0.0473373
        k(   14) = (  -0.2221257   0.5379686   0.0000000), wk =   0.0473373
        k(   15) = (  -0.1777005   0.4611159   0.0000000), wk =   0.0473373
        k(   16) = (  -0.1332754   0.3842633   0.0000000), wk =   0.0473373
        k(   17) = (  -0.0888503   0.3074106   0.0000000), wk =   0.0473373
        k(   18) = (  -0.0444251   0.2305580   0.0000000), wk =   0.0473373
        k(   19) = (   0.0000000   0.1537053   0.0000000), wk =   0.0236686
        k(   20) = (   0.1777005   0.0000000   0.0000000), wk =   0.0236686
        k(   21) = (   0.2221257  -0.0768527   0.0000000), wk =   0.0473373
        k(   22) = (   0.2665508  -0.1537053   0.0000000), wk =   0.0473373
        k(   23) = (   0.3109760  -0.2305580   0.0000000), wk =   0.0473373
        k(   24) = (   0.3554011  -0.3074106   0.0000000), wk =   0.0473373
        k(   25) = (  -0.1777005   0.6148212   0.0000000), wk =   0.0473373
        k(   26) = (  -0.1332754   0.5379686   0.0000000), wk =   0.0473373
        k(   27) = (  -0.0888503   0.4611159   0.0000000), wk =   0.0473373
        k(   28) = (  -0.0444251   0.3842633   0.0000000), wk =   0.0473373
        k(   29) = (   0.0000000   0.3074106   0.0000000), wk =   0.0236686
        k(   30) = (   0.2665508   0.0000000   0.0000000), wk =   0.0236686
        k(   31) = (   0.3109760  -0.0768527   0.0000000), wk =   0.0473373
        k(   32) = (   0.3554011  -0.1537053   0.0000000), wk =   0.0473373
        k(   33) = (   0.3998262  -0.2305580   0.0000000), wk =   0.0473373
        k(   34) = (  -0.1332754   0.6916739   0.0000000), wk =   0.0473373
        k(   35) = (  -0.0888503   0.6148212   0.0000000), wk =   0.0473373
        k(   36) = (  -0.0444251   0.5379686   0.0000000), wk =   0.0473373
        k(   37) = (   0.0000000   0.4611159   0.0000000), wk =   0.0236686
        k(   38) = (   0.3554011   0.0000000   0.0000000), wk =   0.0236686
        k(   39) = (   0.3998262  -0.0768527   0.0000000), wk =   0.0473373
        k(   40) = (   0.4442514  -0.1537053   0.0000000), wk =   0.0473373
        k(   41) = (  -0.0888503   0.7685265   0.0000000), wk =   0.0473373
        k(   42) = (  -0.0444251   0.6916739   0.0000000), wk =   0.0473373
        k(   43) = (   0.0000000   0.6148212   0.0000000), wk =   0.0236686
        k(   44) = (   0.4442514   0.0000000   0.0000000), wk =   0.0236686
        k(   45) = (   0.4886765  -0.0768527   0.0000000), wk =   0.0473373
        k(   46) = (  -0.0444251   0.8453792   0.0000000), wk =   0.0473373
        k(   47) = (   0.0000000   0.7685265   0.0000000), wk =   0.0236686
        k(   48) = (   0.5331016   0.0000000   0.0000000), wk =   0.0236686
        k(   49) = (   0.0000000   0.9222318   0.0000000), wk =   0.0236686

     Dense  grid:    96189 G-vectors     FFT dimensions: (  32,  32, 240)

     Estimated max dynamical RAM per process >      47.93 MB

     Estimated total dynamical RAM >     479.30 MB

     Check: negative core charge=   -0.000002

     Initial potential from superposition of free atoms

     starting charge      17.9954, renormalised to      18.0000

     negative rho (up, down):  1.005E-03 0.000E+00


     %%%%%%%%%%%%%%%%%%%%%%%%%%%%%%%%%%%%%%%%%%%%%%%%%%%%%%%%%%%%%%%%%%%%%%%%
     %                                                                      %
     % You are using vdW-DF, which was implemented by the Thonhauser group. %
     % Please cite the following two papers that made this development      %
     % possible and the two reviews that describe the various versions:     %
     %                                                                      %
     %   T. Thonhauser et al., PRL 115, 136402 (2015).                      %
     %   T. Thonhauser et al., PRB 76, 125112 (2007).                       %
     %   K. Berland et al., Rep. Prog. Phys. 78, 066501 (2015).             %
     %   D.C. Langreth et al., J. Phys.: Condens. Matter 21, 084203 (2009). %
     %                                                                      %
     %                                                                      %
     % If you are calculating the stress with vdW-DF, please also cite:     %
     %                                                                      %
     %   R. Sabatini et al., J. Phys.: Condens. Matter 24, 424209 (2012).   %
     %                                                                      %
     %%%%%%%%%%%%%%%%%%%%%%%%%%%%%%%%%%%%%%%%%%%%%%%%%%%%%%%%%%%%%%%%%%%%%%%%


     Starting wfcs are   16 randomized atomic wfcs
     Checking if some PAW data can be deallocated... 

     total cpu time spent up to now is        4.3 secs

     Self-consistent Calculation

     iteration #  1     ecut=    60.00 Ry     beta= 0.50
     Davidson diagonalization with overlap
     ethr =  1.00E-02,  avg # of iterations =  2.2

     negative rho (up, down):  8.341E-04 0.000E+00

     total cpu time spent up to now is        5.7 secs

     total energy              =    -186.26599629 Ry
     estimated scf accuracy    <       0.66807744 Ry

     iteration #  2     ecut=    60.00 Ry     beta= 0.50
     Davidson diagonalization with overlap
     ethr =  3.71E-03,  avg # of iterations =  3.2

     negative rho (up, down):  8.418E-04 0.000E+00

     total cpu time spent up to now is        7.2 secs

     total energy              =    -186.51148687 Ry
     estimated scf accuracy    <       0.19414694 Ry

     iteration #  3     ecut=    60.00 Ry     beta= 0.50
     Davidson diagonalization with overlap
     ethr =  1.08E-03,  avg # of iterations =  3.9

     negative rho (up, down):  9.271E-04 0.000E+00

     total cpu time spent up to now is        8.7 secs

     total energy              =    -186.57042698 Ry
     estimated scf accuracy    <       0.04460535 Ry

     iteration #  4     ecut=    60.00 Ry     beta= 0.50
     Davidson diagonalization with overlap
     ethr =  2.48E-04,  avg # of iterations =  3.4

     negative rho (up, down):  1.095E-03 0.000E+00

     total cpu time spent up to now is       10.2 secs

     total energy              =    -186.58330687 Ry
     estimated scf accuracy    <       0.00430973 Ry

     iteration #  5     ecut=    60.00 Ry     beta= 0.50
     Davidson diagonalization with overlap
     ethr =  2.39E-05,  avg # of iterations =  7.0

     negative rho (up, down):  1.130E-03 0.000E+00

     total cpu time spent up to now is       12.3 secs

     total energy              =    -186.58709063 Ry
     estimated scf accuracy    <       0.00849808 Ry

     iteration #  6     ecut=    60.00 Ry     beta= 0.50
     Davidson diagonalization with overlap
     ethr =  2.39E-05,  avg # of iterations =  2.0

     negative rho (up, down):  1.166E-03 0.000E+00

     total cpu time spent up to now is       13.6 secs

     total energy              =    -186.58492543 Ry
     estimated scf accuracy    <       0.00436160 Ry

     iteration #  7     ecut=    60.00 Ry     beta= 0.50
     Davidson diagonalization with overlap
     ethr =  2.39E-05,  avg # of iterations =  5.0

     negative rho (up, down):  1.165E-03 0.000E+00

     total cpu time spent up to now is       15.4 secs

     total energy              =    -186.58714213 Ry
     estimated scf accuracy    <       0.00380252 Ry

     iteration #  8     ecut=    60.00 Ry     beta= 0.50
     Davidson diagonalization with overlap
     ethr =  2.11E-05,  avg # of iterations =  1.0

     negative rho (up, down):  1.172E-03 0.000E+00

     total cpu time spent up to now is       16.5 secs

     total energy              =    -186.58663266 Ry
     estimated scf accuracy    <       0.00148163 Ry

     iteration #  9     ecut=    60.00 Ry     beta= 0.50
     Davidson diagonalization with overlap
     ethr =  8.23E-06,  avg # of iterations =  4.8

     negative rho (up, down):  1.175E-03 0.000E+00

     total cpu time spent up to now is       18.1 secs

     total energy              =    -186.58720033 Ry
     estimated scf accuracy    <       0.00007384 Ry

     iteration # 10     ecut=    60.00 Ry     beta= 0.50
     Davidson diagonalization with overlap
     ethr =  4.10E-07,  avg # of iterations =  4.3

     negative rho (up, down):  1.177E-03 0.000E+00

     total cpu time spent up to now is       19.7 secs

     total energy              =    -186.58721196 Ry
     estimated scf accuracy    <       0.00006600 Ry

     iteration # 11     ecut=    60.00 Ry     beta= 0.50
     Davidson diagonalization with overlap
     ethr =  3.67E-07,  avg # of iterations =  3.2

     negative rho (up, down):  1.179E-03 0.000E+00

     total cpu time spent up to now is       21.0 secs

     total energy              =    -186.58722185 Ry
     estimated scf accuracy    <       0.00000390 Ry

     iteration # 12     ecut=    60.00 Ry     beta= 0.50
     Davidson diagonalization with overlap
     ethr =  2.16E-08,  avg # of iterations =  6.1

     negative rho (up, down):  1.179E-03 0.000E+00

     total cpu time spent up to now is       23.0 secs

     total energy              =    -186.58722683 Ry
     estimated scf accuracy    <       0.00001089 Ry

     iteration # 13     ecut=    60.00 Ry     beta= 0.50
     Davidson diagonalization with overlap
     ethr =  2.16E-08,  avg # of iterations =  3.4

     negative rho (up, down):  1.178E-03 0.000E+00

     total cpu time spent up to now is       24.4 secs

     total energy              =    -186.58722706 Ry
     estimated scf accuracy    <       0.00000179 Ry

     iteration # 14     ecut=    60.00 Ry     beta= 0.50
     Davidson diagonalization with overlap
     ethr =  9.96E-09,  avg # of iterations =  4.7

     negative rho (up, down):  1.179E-03 0.000E+00

     total cpu time spent up to now is       26.0 secs

     total energy              =    -186.58722808 Ry
     estimated scf accuracy    <       0.00000025 Ry

     iteration # 15     ecut=    60.00 Ry     beta= 0.50
     Davidson diagonalization with overlap
     ethr =  1.39E-09,  avg # of iterations =  2.6

     negative rho (up, down):  1.179E-03 0.000E+00

     total cpu time spent up to now is       27.4 secs

     total energy              =    -186.58722810 Ry
     estimated scf accuracy    <       0.00000011 Ry

     iteration # 16     ecut=    60.00 Ry     beta= 0.50
     Davidson diagonalization with overlap
     ethr =  6.29E-10,  avg # of iterations =  2.4

     negative rho (up, down):  1.179E-03 0.000E+00

     total cpu time spent up to now is       28.7 secs

     total energy              =    -186.58722810 Ry
     estimated scf accuracy    <       0.00000003 Ry

     iteration # 17     ecut=    60.00 Ry     beta= 0.50
     Davidson diagonalization with overlap
     ethr =  1.57E-10,  avg # of iterations =  4.6

     negative rho (up, down):  1.179E-03 0.000E+00

     total cpu time spent up to now is       30.3 secs

     End of self-consistent calculation

          k = 0.0000 0.0000 0.0000 ( 12063 PWs)   bands (ev):

   -21.7756 -16.0951  -8.6396  -6.7675  -6.7645  -6.5810  -3.9850  -2.2450
    -2.2334  -0.7921

          k = 0.0444-0.0769 0.0000 ( 12091 PWs)   bands (ev):

   -21.7467 -16.0177  -8.5809  -6.9850  -6.7996  -6.5247  -3.8530  -2.7346
    -2.3511  -0.5988

          k = 0.0889-0.1537 0.0000 ( 12125 PWs)   bands (ev):

   -21.6654 -15.7912  -8.4665  -7.4250  -6.8888  -6.3667  -3.9408  -3.4824
    -2.6413  -0.1061

          k = 0.1333-0.2306 0.0000 ( 12119 PWs)   bands (ev):

   -21.5472 -15.4350  -8.6147  -7.5579  -7.0100  -6.1653  -5.1446  -3.2300
    -2.9973   0.4985

          k = 0.1777-0.3074 0.0000 ( 12090 PWs)   bands (ev):

   -21.4167 -14.9915  -9.0676  -7.3173  -7.1335  -6.5278  -5.5985  -3.3264
    -3.0171   0.5565

          k = 0.2221-0.3843 0.0000 ( 12053 PWs)   bands (ev):

   -21.3043 -14.5450  -9.4722  -7.7384  -7.2321  -6.6283  -5.2713  -3.5708
    -2.9895  -0.1843

          k = 0.2666-0.4611 0.0000 ( 12030 PWs)   bands (ev):

   -21.2390 -14.2429  -9.6982  -8.2798  -7.2864  -6.3820  -4.9219  -3.6996
    -3.1775  -0.5993

          k = 0.0889 0.0000 0.0000 ( 12083 PWs)   bands (ev):

   -21.7466 -16.0175  -8.5807  -6.9870  -6.7976  -6.5245  -3.8530  -2.7259
    -2.3606  -0.5989

          k = 0.1333-0.0769 0.0000 ( 12107 PWs)   bands (ev):

   -21.6914 -15.8653  -8.4902  -7.3039  -6.8706  -6.4171  -3.7289  -3.4026
    -2.6126  -0.2560

          k = 0.1777-0.1537 0.0000 ( 12098 PWs)   bands (ev):

   -21.5915 -15.5732  -8.4948  -7.5631  -7.0043  -6.2283  -4.6383  -3.3203
    -3.0377   0.3164

          k = 0.2221-0.2306 0.0000 ( 12103 PWs)   bands (ev):

   -21.4668 -15.1707  -8.8452  -7.4011  -7.1584  -6.1967  -5.5539  -3.4783
    -3.0706   0.8322

          k = 0.2666-0.3074 0.0000 ( 12052 PWs)   bands (ev):

   -21.3448 -14.7182  -9.2696  -7.3787  -7.2987  -6.6843  -5.4161  -3.8263
    -2.9416   0.3197

          k = 0.3110-0.3843 0.0000 ( 12037 PWs)   bands (ev):

   -21.2554 -14.3294  -9.5715  -8.0092  -7.4051  -6.4502  -5.0490  -4.0426
    -3.0346  -0.3320

          k =-0.2221 0.5380 0.0000 ( 12020 PWs)   bands (ev):

   -21.2226 -14.1686  -9.6794  -8.2913  -7.4405  -6.3171  -4.8367  -4.1089
    -3.1818  -0.5401

          k =-0.1777 0.4611 0.0000 ( 12039 PWs)   bands (ev):

   -21.2557 -14.3302  -9.5705  -8.0079  -7.4064  -6.4506  -5.0499  -4.0440
    -3.0344  -0.3312

          k =-0.1333 0.3843 0.0000 ( 12053 PWs)   bands (ev):

   -21.3452 -14.7193  -9.2677  -7.3789  -7.2997  -6.6841  -5.4168  -3.8290
    -2.9418   0.3214

          k =-0.0889 0.3074 0.0000 ( 12107 PWs)   bands (ev):

   -21.4672 -15.1718  -8.8432  -7.4018  -7.1606  -6.1964  -5.5531  -3.4810
    -3.0710   0.8331

          k =-0.0444 0.2306 0.0000 ( 12096 PWs)   bands (ev):

   -21.5918 -15.5741  -8.4940  -7.5617  -7.0072  -6.2290  -4.6381  -3.3203
    -3.0385   0.3170

          k = 0.0000 0.1537 0.0000 ( 12103 PWs)   bands (ev):

   -21.6917 -15.8658  -8.4906  -7.3011  -6.8734  -6.4175  -3.7304  -3.4060
    -2.6072  -0.2556

          k = 0.1777 0.0000 0.0000 ( 12121 PWs)   bands (ev):

   -21.6650 -15.7905  -8.4660  -7.4265  -6.8876  -6.3660  -3.9336  -3.4808
    -2.6524  -0.1065

          k = 0.2221-0.0769 0.0000 ( 12096 PWs)   bands (ev):

   -21.5912 -15.5727  -8.4945  -7.5632  -7.0045  -6.2277  -4.6331  -3.3197
    -3.0456   0.3160

          k = 0.2666-0.1537 0.0000 ( 12093 PWs)   bands (ev):

   -21.4845 -15.2325  -8.7412  -7.4225  -7.2214  -6.1126  -5.3710  -3.7228
    -3.0899   0.9192

          k = 0.3110-0.2306 0.0000 ( 12044 PWs)   bands (ev):

   -21.3676 -14.8134  -9.0800  -7.4710  -7.1900  -6.5061  -5.4479  -4.3489
    -2.9152   1.0362

          k = 0.3554-0.3074 0.0000 ( 12022 PWs)   bands (ev):

   -21.2676 -14.3983  -9.3622  -7.6819  -7.5871  -6.4850  -5.1481  -4.7465
    -2.8857   0.1857

          k =-0.1777 0.6148 0.0000 ( 12007 PWs)   bands (ev):

   -21.2099 -14.1232  -9.5190  -8.0396  -7.7935  -6.2791  -5.0939  -4.6750
    -3.0188  -0.3084

          k =-0.1333 0.5380 0.0000 ( 12012 PWs)   bands (ev):

   -21.2101 -14.1240  -9.5179  -8.0383  -7.7947  -6.2796  -5.0951  -4.6757
    -3.0183  -0.3077

          k =-0.0889 0.4611 0.0000 ( 12026 PWs)   bands (ev):

   -21.2682 -14.4002  -9.3592  -7.6852  -7.5843  -6.4859  -5.1499  -4.7490
    -2.8857   0.1882

          k =-0.0444 0.3843 0.0000 ( 12044 PWs)   bands (ev):

   -21.3684 -14.8156  -9.0762  -7.4755  -7.1900  -6.5047  -5.4487  -4.3516
    -2.9160   1.0390

          k = 0.0000 0.3074 0.0000 ( 12097 PWs)   bands (ev):

   -21.4853 -15.2344  -8.7384  -7.4228  -7.2253  -6.1140  -5.3709  -3.7220
    -3.0908   0.9206

          k = 0.2666 0.0000 0.0000 ( 12113 PWs)   bands (ev):

   -21.5464 -15.4334  -8.6148  -7.5576  -7.0098  -6.1635  -5.1376  -3.2289
    -3.0102   0.4973

          k = 0.3110-0.0769 0.0000 ( 12105 PWs)   bands (ev):

   -21.4661 -15.1692  -8.8450  -7.4002  -7.1591  -6.1929  -5.5501  -3.4902
    -3.0696   0.8315

          k = 0.3554-0.1537 0.0000 ( 12042 PWs)   bands (ev):

   -21.3672 -14.8124  -9.0797  -7.4720  -7.1882  -6.5035  -5.4467  -4.3558
    -2.9142   1.0377

          k = 0.3998-0.2306 0.0000 ( 12026 PWs)   bands (ev):

   -21.2718 -14.4238  -9.2408  -7.8346  -7.3478  -6.4708  -5.2258  -5.1047
    -2.8254   0.5755

          k =-0.1333 0.6917 0.0000 ( 11972 PWs)   bands (ev):

   -21.2029 -14.1042  -9.3103  -8.1383  -7.6655  -6.2570  -5.7941  -4.7345
    -2.8437  -0.0755

          k =-0.0889 0.6148 0.0000 ( 12036 PWs)   bands (ev):

   -21.1779 -13.9773  -9.3216  -8.2616  -7.8023  -6.1822  -5.9794  -4.5361
    -2.8947  -0.3507

          k =-0.0444 0.5380 0.0000 ( 11976 PWs)   bands (ev):

   -21.2035 -14.1062  -9.3070  -8.1416  -7.6629  -6.2581  -5.7952  -4.7367
    -2.8437  -0.0730

          k = 0.0000 0.4611 0.0000 ( 12034 PWs)   bands (ev):

   -21.2728 -14.4269  -9.2364  -7.8388  -7.3464  -6.4721  -5.2251  -5.1076
    -2.8267   0.5789

          k = 0.3554 0.0000 0.0000 ( 12091 PWs)   bands (ev):

   -21.4155 -14.9887  -9.0681  -7.3144  -7.1343  -6.5227  -5.5961  -3.3407
    -3.0148   0.5565

          k = 0.3998-0.0769 0.0000 ( 12056 PWs)   bands (ev):

   -21.3437 -14.7155  -9.2695  -7.3748  -7.2992  -6.6815  -5.4141  -3.8403
    -2.9389   0.3209

          k = 0.4443-0.1537 0.0000 ( 12030 PWs)   bands (ev):

   -21.2668 -14.3961  -9.3621  -7.6832  -7.5823  -6.4834  -5.1475  -4.7555
    -2.8828   0.1864

          k =-0.0889 0.7685 0.0000 ( 11974 PWs)   bands (ev):

   -21.2025 -14.1028  -9.3105  -8.1387  -7.6626  -6.2561  -5.7993  -4.7334
    -2.8419  -0.0764

          k =-0.0444 0.6917 0.0000 ( 11998 PWs)   bands (ev):

   -21.1661 -13.9238  -9.1427  -8.5410  -7.5421  -6.5192  -6.1223  -4.4718
    -2.7986  -0.4197

          k = 0.0000 0.6148 0.0000 ( 11984 PWs)   bands (ev):

   -21.1665 -13.9251  -9.1401  -8.5434  -7.5420  -6.5179  -6.1230  -4.4734
    -2.7992  -0.4178

          k = 0.4443 0.0000 0.0000 ( 12049 PWs)   bands (ev):

   -21.3028 -14.5409  -9.4727  -7.7331  -7.2336  -6.6256  -5.2682  -3.5861
    -2.9854  -0.1851

          k = 0.4887-0.0769 0.0000 ( 12031 PWs)   bands (ev):

   -21.2540 -14.3253  -9.5717  -8.0041  -7.4071  -6.4477  -5.0460  -4.0568
    -3.0300  -0.3335

          k =-0.0444 0.8454 0.0000 ( 11996 PWs)   bands (ev):

   -21.2087 -14.1196  -9.5196  -8.0354  -7.7944  -6.2771  -5.1022  -4.6744
    -3.0146  -0.3108

          k = 0.0000 0.7685 0.0000 ( 12026 PWs)   bands (ev):

   -21.1771 -13.9746  -9.3232  -8.2608  -7.7995  -6.1813  -5.9852  -4.5334
    -2.8920  -0.3538

          k = 0.5331 0.0000 0.0000 ( 12015 PWs)   bands (ev):

   -21.2372 -14.2377  -9.6987  -8.2755  -7.2883  -6.3789  -4.9175  -3.7154
    -3.1724  -0.6021

          k = 0.0000 0.9222 0.0000 ( 12012 PWs)   bands (ev):

   -21.2210 -14.1636  -9.6801  -8.2873  -7.4420  -6.3142  -4.8329  -4.1224
    -3.1769  -0.5431

     highest occupied, lowest unoccupied level (ev):    -2.2334   -0.7921

!    total energy              =    -186.58722811 Ry

     total all-electron energy =     -1919.820799 Ry
     estimated scf accuracy    <          3.1E-09 Ry

     The total energy is the sum of the following terms:
     one-electron contribution =    -529.14510163 Ry
     hartree contribution      =     269.46781941 Ry
     xc contribution           =     -17.91868471 Ry
     ewald contribution        =     215.38808585 Ry
     one-center paw contrib.   =    -124.37934704 Ry

     convergence has been achieved in  17 iterations

     Writing all to output data dir ./work/Al2SO.save/
 
     init_run     :      4.02s CPU      4.20s WALL (       1 calls)
     electrons    :     22.31s CPU     26.01s WALL (       1 calls)

     Called by init_run:
     wfcinit      :      0.40s CPU      0.50s WALL (       1 calls)
     potinit      :      3.39s CPU      3.44s WALL (       1 calls)
     hinit0       :      0.13s CPU      0.16s WALL (       1 calls)

     Called by electrons:
     c_bands      :     16.20s CPU     19.16s WALL (      17 calls)
     sum_band     :      3.34s CPU      3.83s WALL (      17 calls)
     v_of_rho     :      4.23s CPU      4.43s WALL (      18 calls)
     newd         :      1.18s CPU      1.19s WALL (      18 calls)
     PAW_pot      :      0.71s CPU      0.78s WALL (      18 calls)
     mix_rho      :      0.04s CPU      0.05s WALL (      17 calls)
     vdW_kernel   :      3.25s CPU      3.27s WALL (       1 calls)

     Called by c_bands:
     init_us_2    :      0.44s CPU      0.52s WALL (    1715 calls)
     init_us_2:cp :      0.44s CPU      0.52s WALL (    1715 calls)
     cegterg      :     13.92s CPU     16.70s WALL (     833 calls)

     Called by *egterg:
     cdiaghg      :      0.31s CPU      0.37s WALL (    3968 calls)
     h_psi        :     11.72s CPU     14.12s WALL (    4017 calls)
     s_psi        :      0.62s CPU      0.75s WALL (    4017 calls)
     g_psi        :      0.05s CPU      0.05s WALL (    3135 calls)

     Called by h_psi:
     h_psi:calbec :      0.68s CPU      0.85s WALL (    4017 calls)
     vloc_psi     :     10.08s CPU     12.11s WALL (    4017 calls)
     add_vuspsi   :      0.90s CPU      1.11s WALL (    4017 calls)

     General routines
     calbec       :      0.83s CPU      1.03s WALL (    4850 calls)
     fft          :      0.34s CPU      0.49s WALL (    1098 calls)
     ffts         :      0.01s CPU      0.01s WALL (      17 calls)
     fftw         :     10.92s CPU     13.17s WALL (   60380 calls)
 
     Parallel routines
 
     PWSCF        :     26.46s CPU     30.45s WALL

 
   This run was terminated on:   7:47:47  12Jun2023            

=------------------------------------------------------------------------------=
   JOB DONE.
=------------------------------------------------------------------------------=
