
     Program PWSCF v.7.0 starts on 12Jun2023 at  7:47:49 

     This program is part of the open-source Quantum ESPRESSO suite
     for quantum simulation of materials; please cite
         "P. Giannozzi et al., J. Phys.:Condens. Matter 21 395502 (2009);
         "P. Giannozzi et al., J. Phys.:Condens. Matter 29 465901 (2017);
         "P. Giannozzi et al., J. Chem. Phys. 152 154105 (2020);
          URL http://www.quantum-espresso.org", 
     in publications or presentations arising from this work. More details at
     http://www.quantum-espresso.org/quote

     Parallel version (MPI), running on    10 processors

     MPI processes distributed on     1 nodes
     R & G space division:  proc/nbgrp/npool/nimage =      10
     36122 MiB available memory on the printing compute node when the environment starts
 
     Waiting for input...
     Reading input from standard input

     Current dimensions of program PWSCF are:
     Max number of different atomic species (ntypx) = 10
     Max number of k-points (npk) =  40000
     Max angular momentum in pseudopotentials (lmaxx) =  4
     Message from routine volume:
     axis vectors are left-handed

     Atomic positions and unit cell read from directory:
     ./work/Al2SO.save/
     Atomic positions from file used, from input discarded
 
     Message from routine volume:
     axis vectors are left-handed
     file Al.pbe-n-kjpaw_psl.1.0.0.UPF: wavefunction(s)  3S 3P renormalized
     file O.pbe-n-kjpaw_psl.1.0.0.UPF: wavefunction(s)  2S 2P renormalized
     file S.pbe-n-kjpaw_psl.1.0.0.UPF: wavefunction(s)  3S 3P renormalized

     IMPORTANT: XC functional enforced from input :
     Exchange-correlation= VDW-DF2-B86R
                           (   1   4  26   0   2   0   0)
     Any further DFT definition will be discarded
     Please, verify this is what you really want


     Subspace diagonalization in iterative solution of the eigenvalue problem:
     a serial algorithm will be used

 
     Parallelization info
     --------------------
     sticks:   dense  smooth     PW     G-vecs:    dense   smooth      PW
     Min          62      62     19                 9614     9614    1729
     Max          63      63     20                 9626     9626    1756
     Sum         621     621    199                96189    96189   17513
 
     Using Slab Decomposition
 


     bravais-lattice index     =            0
     lattice parameter (alat)  =       6.1245  a.u.
     unit-cell volume          =    1535.6018 (a.u.)^3
     number of atoms/cell      =            4
     number of atomic types    =            3
     number of electrons       =        18.00
     number of Kohn-Sham states=           10
     kinetic-energy cutoff     =      60.0000  Ry
     charge density cutoff     =     240.0000  Ry
     Exchange-correlation= VDW-DF2-B86R
                           (   1   4  26   0   2   0   0)

     celldm(1)=   6.124520  celldm(2)=   0.000000  celldm(3)=   0.000000
     celldm(4)=   0.000000  celldm(5)=   0.000000  celldm(6)=   0.000000

     crystal axes: (cart. coord. in units of alat)
               a(1) = (   0.865761   0.500458   0.000000 )  
               a(2) = (   0.865761  -0.500458   0.000000 )  
               a(3) = (   0.000000   0.000000   7.713773 )  

     reciprocal axes: (cart. coord. in units 2 pi/alat)
               b(1) = (  0.577527  0.999084  0.000000 )  
               b(2) = (  0.577527 -0.999084  0.000000 )  
               b(3) = (  0.000000  0.000000  0.129638 )  


     PseudoPot. # 1 for Al read from file:
     /home/mainadmin/research/danu/pseudo/Al.pbe-n-kjpaw_psl.1.0.0.UPF
     MD5 check sum: 502b6b27b9c6270cab5dd1084b96fa6d
     Pseudo is Projector augmented-wave + core cor, Zval =  3.0
     Generated using &quot;atomic&quot; code by A. Dal Corso  v.6.3
     Shape of augmentation charge: PSQ
     Using radial grid of 1135 points,  6 beta functions with: 
                l(1) =   0
                l(2) =   0
                l(3) =   1
                l(4) =   1
                l(5) =   2
                l(6) =   2
     Q(r) pseudized with 0 coefficients 


     PseudoPot. # 2 for O  read from file:
     /home/mainadmin/research/danu/pseudo/O.pbe-n-kjpaw_psl.1.0.0.UPF
     MD5 check sum: e99d9cef9b487d1ca56f5b95ecd0fd7a
     Pseudo is Projector augmented-wave + core cor, Zval =  6.0
     Generated using &quot;atomic&quot; code by A. Dal Corso  v.6.3
     Shape of augmentation charge: PSQ
     Using radial grid of 1095 points,  4 beta functions with: 
                l(1) =   0
                l(2) =   0
                l(3) =   1
                l(4) =   1
     Q(r) pseudized with 0 coefficients 


     PseudoPot. # 3 for S  read from file:
     /home/mainadmin/research/danu/pseudo/S.pbe-n-kjpaw_psl.1.0.0.UPF
     MD5 check sum: fb45dfebcf3e72a4e1bd4a866ec2e262
     Pseudo is Projector augmented-wave + core cor, Zval =  6.0
     Generated using &quot;atomic&quot; code by A. Dal Corso  v.6.3
     Shape of augmentation charge: PSQ
     Using radial grid of 1151 points,  6 beta functions with: 
                l(1) =   0
                l(2) =   0
                l(3) =   1
                l(4) =   1
                l(5) =   2
                l(6) =   2
     Q(r) pseudized with 0 coefficients 


     atomic species   valence    mass     pseudopotential
        Al             3.00    26.98100     Al( 1.00)
        O              6.00    15.99900     O ( 1.00)
        S              6.00    32.06500     S ( 1.00)

     No symmetry found


                                    s                        frac. trans.

      isym =  1     identity                                     

 cryst.   s( 1) = (     1          0          0      )
                  (     0          1          0      )
                  (     0          0          1      )

 cart.    s( 1) = (  1.0000000  0.0000000  0.0000000 )
                  (  0.0000000  1.0000000  0.0000000 )
                  (  0.0000000  0.0000000  1.0000000 )


   Cartesian axes

     site n.     atom                  positions (alat units)
         1           O   tau(   1) = (   1.1544229   0.0000000   3.2464034  )
         2           Al  tau(   2) = (   0.5777197   0.0000000   3.4120502  )
         3           Al  tau(   3) = (   0.5767525   0.0000000   4.2159765  )
         4           S   tau(   4) = (   1.1541478   0.0000000   4.5934659  )

   Crystallographic axes

     site n.     atom                  positions (cryst. coord.)
         1           O   tau(   1) = (  0.6667102  0.6667102  0.4208581  )
         2           Al  tau(   2) = (  0.3336486  0.3336486  0.4423322  )
         3           Al  tau(   3) = (  0.3330900  0.3330900  0.5465518  )
         4           S   tau(   4) = (  0.6665512  0.6665512  0.5954889  )

     number of k points=  1154 (tetrahedron method)
                       cart. coord. in units 2pi/alat
        k(    1) = (   0.0000000   0.0000000   0.0000000), wk =   0.0008681
        k(    2) = (   0.0120318  -0.0208143   0.0000000), wk =   0.0017361
        k(    3) = (   0.0240636  -0.0416285   0.0000000), wk =   0.0017361
        k(    4) = (   0.0360954  -0.0624428   0.0000000), wk =   0.0017361
        k(    5) = (   0.0481272  -0.0832570   0.0000000), wk =   0.0017361
        k(    6) = (   0.0601590  -0.1040713   0.0000000), wk =   0.0017361
        k(    7) = (   0.0721908  -0.1248856   0.0000000), wk =   0.0017361
        k(    8) = (   0.0842227  -0.1456998   0.0000000), wk =   0.0017361
        k(    9) = (   0.0962545  -0.1665141   0.0000000), wk =   0.0017361
        k(   10) = (   0.1082863  -0.1873283   0.0000000), wk =   0.0017361
        k(   11) = (   0.1203181  -0.2081426   0.0000000), wk =   0.0017361
        k(   12) = (   0.1323499  -0.2289569   0.0000000), wk =   0.0017361
        k(   13) = (   0.1443817  -0.2497711   0.0000000), wk =   0.0017361
        k(   14) = (   0.1564135  -0.2705854   0.0000000), wk =   0.0017361
        k(   15) = (   0.1684453  -0.2913996   0.0000000), wk =   0.0017361
        k(   16) = (   0.1804771  -0.3122139   0.0000000), wk =   0.0017361
        k(   17) = (   0.1925089  -0.3330282   0.0000000), wk =   0.0017361
        k(   18) = (   0.2045407  -0.3538424   0.0000000), wk =   0.0017361
        k(   19) = (   0.2165725  -0.3746567   0.0000000), wk =   0.0017361
        k(   20) = (   0.2286044  -0.3954709   0.0000000), wk =   0.0017361
        k(   21) = (   0.2406362  -0.4162852   0.0000000), wk =   0.0017361
        k(   22) = (   0.2526680  -0.4370995   0.0000000), wk =   0.0017361
        k(   23) = (   0.2646998  -0.4579137   0.0000000), wk =   0.0017361
        k(   24) = (   0.2767316  -0.4787280   0.0000000), wk =   0.0017361
        k(   25) = (  -0.2887634   0.4995422   0.0000000), wk =   0.0008681
        k(   26) = (   0.0120318   0.0208143   0.0000000), wk =   0.0017361
        k(   27) = (   0.0240636   0.0000000   0.0000000), wk =   0.0017361
        k(   28) = (   0.0360954  -0.0208143   0.0000000), wk =   0.0017361
        k(   29) = (   0.0481272  -0.0416285   0.0000000), wk =   0.0017361
        k(   30) = (   0.0601590  -0.0624428   0.0000000), wk =   0.0017361
        k(   31) = (   0.0721908  -0.0832570   0.0000000), wk =   0.0017361
        k(   32) = (   0.0842227  -0.1040713   0.0000000), wk =   0.0017361
        k(   33) = (   0.0962545  -0.1248856   0.0000000), wk =   0.0017361
        k(   34) = (   0.1082863  -0.1456998   0.0000000), wk =   0.0017361
        k(   35) = (   0.1203181  -0.1665141   0.0000000), wk =   0.0017361
        k(   36) = (   0.1323499  -0.1873283   0.0000000), wk =   0.0017361
        k(   37) = (   0.1443817  -0.2081426   0.0000000), wk =   0.0017361
        k(   38) = (   0.1564135  -0.2289569   0.0000000), wk =   0.0017361
        k(   39) = (   0.1684453  -0.2497711   0.0000000), wk =   0.0017361
        k(   40) = (   0.1804771  -0.2705854   0.0000000), wk =   0.0017361
        k(   41) = (   0.1925089  -0.2913996   0.0000000), wk =   0.0017361
        k(   42) = (   0.2045407  -0.3122139   0.0000000), wk =   0.0017361
        k(   43) = (   0.2165725  -0.3330282   0.0000000), wk =   0.0017361
        k(   44) = (   0.2286044  -0.3538424   0.0000000), wk =   0.0017361
        k(   45) = (   0.2406362  -0.3746567   0.0000000), wk =   0.0017361
        k(   46) = (   0.2526680  -0.3954709   0.0000000), wk =   0.0017361
        k(   47) = (   0.2646998  -0.4162852   0.0000000), wk =   0.0017361
        k(   48) = (   0.2767316  -0.4370995   0.0000000), wk =   0.0017361
        k(   49) = (   0.2887634  -0.4579137   0.0000000), wk =   0.0017361
        k(   50) = (  -0.2767316   0.5203565   0.0000000), wk =   0.0017361
        k(   51) = (  -0.2646998   0.4995422   0.0000000), wk =   0.0017361
        k(   52) = (  -0.2526680   0.4787280   0.0000000), wk =   0.0017361
        k(   53) = (  -0.2406362   0.4579137   0.0000000), wk =   0.0017361
        k(   54) = (  -0.2286044   0.4370995   0.0000000), wk =   0.0017361
        k(   55) = (  -0.2165725   0.4162852   0.0000000), wk =   0.0017361
        k(   56) = (  -0.2045407   0.3954709   0.0000000), wk =   0.0017361
        k(   57) = (  -0.1925089   0.3746567   0.0000000), wk =   0.0017361
        k(   58) = (  -0.1804771   0.3538424   0.0000000), wk =   0.0017361
        k(   59) = (  -0.1684453   0.3330282   0.0000000), wk =   0.0017361
        k(   60) = (  -0.1564135   0.3122139   0.0000000), wk =   0.0017361
        k(   61) = (  -0.1443817   0.2913996   0.0000000), wk =   0.0017361
        k(   62) = (  -0.1323499   0.2705854   0.0000000), wk =   0.0017361
        k(   63) = (  -0.1203181   0.2497711   0.0000000), wk =   0.0017361
        k(   64) = (  -0.1082863   0.2289569   0.0000000), wk =   0.0017361
        k(   65) = (  -0.0962545   0.2081426   0.0000000), wk =   0.0017361
        k(   66) = (  -0.0842227   0.1873283   0.0000000), wk =   0.0017361
        k(   67) = (  -0.0721908   0.1665141   0.0000000), wk =   0.0017361
        k(   68) = (  -0.0601590   0.1456998   0.0000000), wk =   0.0017361
        k(   69) = (  -0.0481272   0.1248856   0.0000000), wk =   0.0017361
        k(   70) = (  -0.0360954   0.1040713   0.0000000), wk =   0.0017361
        k(   71) = (  -0.0240636   0.0832570   0.0000000), wk =   0.0017361
        k(   72) = (  -0.0120318   0.0624428   0.0000000), wk =   0.0017361
        k(   73) = (  -0.0000000   0.0416285   0.0000000), wk =   0.0017361
        k(   74) = (   0.0240636   0.0416285   0.0000000), wk =   0.0017361
        k(   75) = (   0.0360954   0.0208143   0.0000000), wk =   0.0017361
        k(   76) = (   0.0481272   0.0000000   0.0000000), wk =   0.0017361
        k(   77) = (   0.0601590  -0.0208143   0.0000000), wk =   0.0017361
        k(   78) = (   0.0721908  -0.0416285   0.0000000), wk =   0.0017361
        k(   79) = (   0.0842227  -0.0624428   0.0000000), wk =   0.0017361
        k(   80) = (   0.0962545  -0.0832570   0.0000000), wk =   0.0017361
        k(   81) = (   0.1082863  -0.1040713   0.0000000), wk =   0.0017361
        k(   82) = (   0.1203181  -0.1248856   0.0000000), wk =   0.0017361
        k(   83) = (   0.1323499  -0.1456998   0.0000000), wk =   0.0017361
        k(   84) = (   0.1443817  -0.1665141   0.0000000), wk =   0.0017361
        k(   85) = (   0.1564135  -0.1873283   0.0000000), wk =   0.0017361
        k(   86) = (   0.1684453  -0.2081426   0.0000000), wk =   0.0017361
        k(   87) = (   0.1804771  -0.2289569   0.0000000), wk =   0.0017361
        k(   88) = (   0.1925089  -0.2497711   0.0000000), wk =   0.0017361
        k(   89) = (   0.2045407  -0.2705854   0.0000000), wk =   0.0017361
        k(   90) = (   0.2165725  -0.2913996   0.0000000), wk =   0.0017361
        k(   91) = (   0.2286044  -0.3122139   0.0000000), wk =   0.0017361
        k(   92) = (   0.2406362  -0.3330282   0.0000000), wk =   0.0017361
        k(   93) = (   0.2526680  -0.3538424   0.0000000), wk =   0.0017361
        k(   94) = (   0.2646998  -0.3746567   0.0000000), wk =   0.0017361
        k(   95) = (   0.2767316  -0.3954709   0.0000000), wk =   0.0017361
        k(   96) = (   0.2887634  -0.4162852   0.0000000), wk =   0.0017361
        k(   97) = (   0.3007952  -0.4370995   0.0000000), wk =   0.0017361
        k(   98) = (  -0.2646998   0.5411708   0.0000000), wk =   0.0017361
        k(   99) = (  -0.2526680   0.5203565   0.0000000), wk =   0.0017361
        k(  100) = (  -0.2406362   0.4995422   0.0000000), wk =   0.0017361
        k(  101) = (  -0.2286044   0.4787280   0.0000000), wk =   0.0017361
        k(  102) = (  -0.2165725   0.4579137   0.0000000), wk =   0.0017361
        k(  103) = (  -0.2045407   0.4370995   0.0000000), wk =   0.0017361
        k(  104) = (  -0.1925089   0.4162852   0.0000000), wk =   0.0017361
        k(  105) = (  -0.1804771   0.3954709   0.0000000), wk =   0.0017361
        k(  106) = (  -0.1684453   0.3746567   0.0000000), wk =   0.0017361
        k(  107) = (  -0.1564135   0.3538424   0.0000000), wk =   0.0017361
        k(  108) = (  -0.1443817   0.3330282   0.0000000), wk =   0.0017361
        k(  109) = (  -0.1323499   0.3122139   0.0000000), wk =   0.0017361
        k(  110) = (  -0.1203181   0.2913996   0.0000000), wk =   0.0017361
        k(  111) = (  -0.1082863   0.2705854   0.0000000), wk =   0.0017361
        k(  112) = (  -0.0962545   0.2497711   0.0000000), wk =   0.0017361
        k(  113) = (  -0.0842227   0.2289569   0.0000000), wk =   0.0017361
        k(  114) = (  -0.0721908   0.2081426   0.0000000), wk =   0.0017361
        k(  115) = (  -0.0601590   0.1873283   0.0000000), wk =   0.0017361
        k(  116) = (  -0.0481272   0.1665141   0.0000000), wk =   0.0017361
        k(  117) = (  -0.0360954   0.1456998   0.0000000), wk =   0.0017361
        k(  118) = (  -0.0240636   0.1248856   0.0000000), wk =   0.0017361
        k(  119) = (  -0.0120318   0.1040713   0.0000000), wk =   0.0017361
        k(  120) = (   0.0000000   0.0832570   0.0000000), wk =   0.0017361
        k(  121) = (   0.0120318   0.0624428   0.0000000), wk =   0.0017361
        k(  122) = (   0.0360954   0.0624428   0.0000000), wk =   0.0017361
        k(  123) = (   0.0481272   0.0416285   0.0000000), wk =   0.0017361
        k(  124) = (   0.0601590   0.0208143   0.0000000), wk =   0.0017361
        k(  125) = (   0.0721908   0.0000000   0.0000000), wk =   0.0017361
        k(  126) = (   0.0842227  -0.0208143   0.0000000), wk =   0.0017361
        k(  127) = (   0.0962545  -0.0416285   0.0000000), wk =   0.0017361
        k(  128) = (   0.1082863  -0.0624428   0.0000000), wk =   0.0017361
        k(  129) = (   0.1203181  -0.0832570   0.0000000), wk =   0.0017361
        k(  130) = (   0.1323499  -0.1040713   0.0000000), wk =   0.0017361
        k(  131) = (   0.1443817  -0.1248856   0.0000000), wk =   0.0017361
        k(  132) = (   0.1564135  -0.1456998   0.0000000), wk =   0.0017361
        k(  133) = (   0.1684453  -0.1665141   0.0000000), wk =   0.0017361
        k(  134) = (   0.1804771  -0.1873283   0.0000000), wk =   0.0017361
        k(  135) = (   0.1925089  -0.2081426   0.0000000), wk =   0.0017361
        k(  136) = (   0.2045407  -0.2289569   0.0000000), wk =   0.0017361
        k(  137) = (   0.2165725  -0.2497711   0.0000000), wk =   0.0017361
        k(  138) = (   0.2286044  -0.2705854   0.0000000), wk =   0.0017361
        k(  139) = (   0.2406362  -0.2913996   0.0000000), wk =   0.0017361
        k(  140) = (   0.2526680  -0.3122139   0.0000000), wk =   0.0017361
        k(  141) = (   0.2646998  -0.3330282   0.0000000), wk =   0.0017361
        k(  142) = (   0.2767316  -0.3538424   0.0000000), wk =   0.0017361
        k(  143) = (   0.2887634  -0.3746567   0.0000000), wk =   0.0017361
        k(  144) = (   0.3007952  -0.3954709   0.0000000), wk =   0.0017361
        k(  145) = (   0.3128270  -0.4162852   0.0000000), wk =   0.0017361
        k(  146) = (  -0.2526680   0.5619850   0.0000000), wk =   0.0017361
        k(  147) = (  -0.2406362   0.5411708   0.0000000), wk =   0.0017361
        k(  148) = (  -0.2286044   0.5203565   0.0000000), wk =   0.0017361
        k(  149) = (  -0.2165725   0.4995422   0.0000000), wk =   0.0017361
        k(  150) = (  -0.2045407   0.4787280   0.0000000), wk =   0.0017361
        k(  151) = (  -0.1925089   0.4579137   0.0000000), wk =   0.0017361
        k(  152) = (  -0.1804771   0.4370995   0.0000000), wk =   0.0017361
        k(  153) = (  -0.1684453   0.4162852   0.0000000), wk =   0.0017361
        k(  154) = (  -0.1564135   0.3954709   0.0000000), wk =   0.0017361
        k(  155) = (  -0.1443817   0.3746567   0.0000000), wk =   0.0017361
        k(  156) = (  -0.1323499   0.3538424   0.0000000), wk =   0.0017361
        k(  157) = (  -0.1203181   0.3330282   0.0000000), wk =   0.0017361
        k(  158) = (  -0.1082863   0.3122139   0.0000000), wk =   0.0017361
        k(  159) = (  -0.0962545   0.2913996   0.0000000), wk =   0.0017361
        k(  160) = (  -0.0842227   0.2705854   0.0000000), wk =   0.0017361
        k(  161) = (  -0.0721908   0.2497711   0.0000000), wk =   0.0017361
        k(  162) = (  -0.0601590   0.2289569   0.0000000), wk =   0.0017361
        k(  163) = (  -0.0481272   0.2081426   0.0000000), wk =   0.0017361
        k(  164) = (  -0.0360954   0.1873283   0.0000000), wk =   0.0017361
        k(  165) = (  -0.0240636   0.1665141   0.0000000), wk =   0.0017361
        k(  166) = (  -0.0120318   0.1456998   0.0000000), wk =   0.0017361
        k(  167) = (   0.0000000   0.1248856   0.0000000), wk =   0.0017361
        k(  168) = (   0.0120318   0.1040713   0.0000000), wk =   0.0017361
        k(  169) = (   0.0240636   0.0832570   0.0000000), wk =   0.0017361
        k(  170) = (   0.0481272   0.0832570   0.0000000), wk =   0.0017361
        k(  171) = (   0.0601590   0.0624428   0.0000000), wk =   0.0017361
        k(  172) = (   0.0721908   0.0416285   0.0000000), wk =   0.0017361
        k(  173) = (   0.0842227   0.0208143   0.0000000), wk =   0.0017361
        k(  174) = (   0.0962545   0.0000000   0.0000000), wk =   0.0017361
        k(  175) = (   0.1082863  -0.0208143   0.0000000), wk =   0.0017361
        k(  176) = (   0.1203181  -0.0416285   0.0000000), wk =   0.0017361
        k(  177) = (   0.1323499  -0.0624428   0.0000000), wk =   0.0017361
        k(  178) = (   0.1443817  -0.0832570   0.0000000), wk =   0.0017361
        k(  179) = (   0.1564135  -0.1040713   0.0000000), wk =   0.0017361
        k(  180) = (   0.1684453  -0.1248856   0.0000000), wk =   0.0017361
        k(  181) = (   0.1804771  -0.1456998   0.0000000), wk =   0.0017361
        k(  182) = (   0.1925089  -0.1665141   0.0000000), wk =   0.0017361
        k(  183) = (   0.2045407  -0.1873283   0.0000000), wk =   0.0017361
        k(  184) = (   0.2165725  -0.2081426   0.0000000), wk =   0.0017361
        k(  185) = (   0.2286044  -0.2289569   0.0000000), wk =   0.0017361
        k(  186) = (   0.2406362  -0.2497711   0.0000000), wk =   0.0017361
        k(  187) = (   0.2526680  -0.2705854   0.0000000), wk =   0.0017361
        k(  188) = (   0.2646998  -0.2913996   0.0000000), wk =   0.0017361
        k(  189) = (   0.2767316  -0.3122139   0.0000000), wk =   0.0017361
        k(  190) = (   0.2887634  -0.3330282   0.0000000), wk =   0.0017361
        k(  191) = (   0.3007952  -0.3538424   0.0000000), wk =   0.0017361
        k(  192) = (   0.3128270  -0.3746567   0.0000000), wk =   0.0017361
        k(  193) = (   0.3248588  -0.3954709   0.0000000), wk =   0.0017361
        k(  194) = (  -0.2406362   0.5827993   0.0000000), wk =   0.0017361
        k(  195) = (  -0.2286044   0.5619850   0.0000000), wk =   0.0017361
        k(  196) = (  -0.2165725   0.5411708   0.0000000), wk =   0.0017361
        k(  197) = (  -0.2045407   0.5203565   0.0000000), wk =   0.0017361
        k(  198) = (  -0.1925089   0.4995422   0.0000000), wk =   0.0017361
        k(  199) = (  -0.1804771   0.4787280   0.0000000), wk =   0.0017361
        k(  200) = (  -0.1684453   0.4579137   0.0000000), wk =   0.0017361
        k(  201) = (  -0.1564135   0.4370995   0.0000000), wk =   0.0017361
        k(  202) = (  -0.1443817   0.4162852   0.0000000), wk =   0.0017361
        k(  203) = (  -0.1323499   0.3954709   0.0000000), wk =   0.0017361
        k(  204) = (  -0.1203181   0.3746567   0.0000000), wk =   0.0017361
        k(  205) = (  -0.1082863   0.3538424   0.0000000), wk =   0.0017361
        k(  206) = (  -0.0962545   0.3330282   0.0000000), wk =   0.0017361
        k(  207) = (  -0.0842227   0.3122139   0.0000000), wk =   0.0017361
        k(  208) = (  -0.0721908   0.2913996   0.0000000), wk =   0.0017361
        k(  209) = (  -0.0601590   0.2705854   0.0000000), wk =   0.0017361
        k(  210) = (  -0.0481272   0.2497711   0.0000000), wk =   0.0017361
        k(  211) = (  -0.0360954   0.2289569   0.0000000), wk =   0.0017361
        k(  212) = (  -0.0240636   0.2081426   0.0000000), wk =   0.0017361
        k(  213) = (  -0.0120318   0.1873283   0.0000000), wk =   0.0017361
        k(  214) = (  -0.0000000   0.1665141   0.0000000), wk =   0.0017361
        k(  215) = (   0.0120318   0.1456998   0.0000000), wk =   0.0017361
        k(  216) = (   0.0240636   0.1248856   0.0000000), wk =   0.0017361
        k(  217) = (   0.0360954   0.1040713   0.0000000), wk =   0.0017361
        k(  218) = (   0.0601590   0.1040713   0.0000000), wk =   0.0017361
        k(  219) = (   0.0721908   0.0832570   0.0000000), wk =   0.0017361
        k(  220) = (   0.0842227   0.0624428   0.0000000), wk =   0.0017361
        k(  221) = (   0.0962545   0.0416285   0.0000000), wk =   0.0017361
        k(  222) = (   0.1082863   0.0208143   0.0000000), wk =   0.0017361
        k(  223) = (   0.1203181   0.0000000   0.0000000), wk =   0.0017361
        k(  224) = (   0.1323499  -0.0208143   0.0000000), wk =   0.0017361
        k(  225) = (   0.1443817  -0.0416285   0.0000000), wk =   0.0017361
        k(  226) = (   0.1564135  -0.0624428   0.0000000), wk =   0.0017361
        k(  227) = (   0.1684453  -0.0832570   0.0000000), wk =   0.0017361
        k(  228) = (   0.1804771  -0.1040713   0.0000000), wk =   0.0017361
        k(  229) = (   0.1925089  -0.1248856   0.0000000), wk =   0.0017361
        k(  230) = (   0.2045407  -0.1456998   0.0000000), wk =   0.0017361
        k(  231) = (   0.2165725  -0.1665141   0.0000000), wk =   0.0017361
        k(  232) = (   0.2286044  -0.1873283   0.0000000), wk =   0.0017361
        k(  233) = (   0.2406362  -0.2081426   0.0000000), wk =   0.0017361
        k(  234) = (   0.2526680  -0.2289569   0.0000000), wk =   0.0017361
        k(  235) = (   0.2646998  -0.2497711   0.0000000), wk =   0.0017361
        k(  236) = (   0.2767316  -0.2705854   0.0000000), wk =   0.0017361
        k(  237) = (   0.2887634  -0.2913996   0.0000000), wk =   0.0017361
        k(  238) = (   0.3007952  -0.3122139   0.0000000), wk =   0.0017361
        k(  239) = (   0.3128270  -0.3330282   0.0000000), wk =   0.0017361
        k(  240) = (   0.3248588  -0.3538424   0.0000000), wk =   0.0017361
        k(  241) = (   0.3368906  -0.3746567   0.0000000), wk =   0.0017361
        k(  242) = (  -0.2286044   0.6036135   0.0000000), wk =   0.0017361
        k(  243) = (  -0.2165725   0.5827993   0.0000000), wk =   0.0017361
        k(  244) = (  -0.2045407   0.5619850   0.0000000), wk =   0.0017361
        k(  245) = (  -0.1925089   0.5411708   0.0000000), wk =   0.0017361
        k(  246) = (  -0.1804771   0.5203565   0.0000000), wk =   0.0017361
        k(  247) = (  -0.1684453   0.4995422   0.0000000), wk =   0.0017361
        k(  248) = (  -0.1564135   0.4787280   0.0000000), wk =   0.0017361
        k(  249) = (  -0.1443817   0.4579137   0.0000000), wk =   0.0017361
        k(  250) = (  -0.1323499   0.4370995   0.0000000), wk =   0.0017361
        k(  251) = (  -0.1203181   0.4162852   0.0000000), wk =   0.0017361
        k(  252) = (  -0.1082863   0.3954709   0.0000000), wk =   0.0017361
        k(  253) = (  -0.0962545   0.3746567   0.0000000), wk =   0.0017361
        k(  254) = (  -0.0842227   0.3538424   0.0000000), wk =   0.0017361
        k(  255) = (  -0.0721908   0.3330282   0.0000000), wk =   0.0017361
        k(  256) = (  -0.0601590   0.3122139   0.0000000), wk =   0.0017361
        k(  257) = (  -0.0481272   0.2913996   0.0000000), wk =   0.0017361
        k(  258) = (  -0.0360954   0.2705854   0.0000000), wk =   0.0017361
        k(  259) = (  -0.0240636   0.2497711   0.0000000), wk =   0.0017361
        k(  260) = (  -0.0120318   0.2289569   0.0000000), wk =   0.0017361
        k(  261) = (   0.0000000   0.2081426   0.0000000), wk =   0.0017361
        k(  262) = (   0.0120318   0.1873283   0.0000000), wk =   0.0017361
        k(  263) = (   0.0240636   0.1665141   0.0000000), wk =   0.0017361
        k(  264) = (   0.0360954   0.1456998   0.0000000), wk =   0.0017361
        k(  265) = (   0.0481272   0.1248856   0.0000000), wk =   0.0017361
        k(  266) = (   0.0721908   0.1248856   0.0000000), wk =   0.0017361
        k(  267) = (   0.0842227   0.1040713   0.0000000), wk =   0.0017361
        k(  268) = (   0.0962545   0.0832570   0.0000000), wk =   0.0017361
        k(  269) = (   0.1082863   0.0624428   0.0000000), wk =   0.0017361
        k(  270) = (   0.1203181   0.0416285   0.0000000), wk =   0.0017361
        k(  271) = (   0.1323499   0.0208143   0.0000000), wk =   0.0017361
        k(  272) = (   0.1443817   0.0000000   0.0000000), wk =   0.0017361
        k(  273) = (   0.1564135  -0.0208143   0.0000000), wk =   0.0017361
        k(  274) = (   0.1684453  -0.0416285   0.0000000), wk =   0.0017361
        k(  275) = (   0.1804771  -0.0624428   0.0000000), wk =   0.0017361
        k(  276) = (   0.1925089  -0.0832570   0.0000000), wk =   0.0017361
        k(  277) = (   0.2045407  -0.1040713   0.0000000), wk =   0.0017361
        k(  278) = (   0.2165725  -0.1248856   0.0000000), wk =   0.0017361
        k(  279) = (   0.2286044  -0.1456998   0.0000000), wk =   0.0017361
        k(  280) = (   0.2406362  -0.1665141   0.0000000), wk =   0.0017361
        k(  281) = (   0.2526680  -0.1873283   0.0000000), wk =   0.0017361
        k(  282) = (   0.2646998  -0.2081426   0.0000000), wk =   0.0017361
        k(  283) = (   0.2767316  -0.2289569   0.0000000), wk =   0.0017361
        k(  284) = (   0.2887634  -0.2497711   0.0000000), wk =   0.0017361
        k(  285) = (   0.3007952  -0.2705854   0.0000000), wk =   0.0017361
        k(  286) = (   0.3128270  -0.2913996   0.0000000), wk =   0.0017361
        k(  287) = (   0.3248588  -0.3122139   0.0000000), wk =   0.0017361
        k(  288) = (   0.3368906  -0.3330282   0.0000000), wk =   0.0017361
        k(  289) = (   0.3489224  -0.3538424   0.0000000), wk =   0.0017361
        k(  290) = (  -0.2165725   0.6244278   0.0000000), wk =   0.0017361
        k(  291) = (  -0.2045407   0.6036135   0.0000000), wk =   0.0017361
        k(  292) = (  -0.1925089   0.5827993   0.0000000), wk =   0.0017361
        k(  293) = (  -0.1804771   0.5619850   0.0000000), wk =   0.0017361
        k(  294) = (  -0.1684453   0.5411708   0.0000000), wk =   0.0017361
        k(  295) = (  -0.1564135   0.5203565   0.0000000), wk =   0.0017361
        k(  296) = (  -0.1443817   0.4995422   0.0000000), wk =   0.0017361
        k(  297) = (  -0.1323499   0.4787280   0.0000000), wk =   0.0017361
        k(  298) = (  -0.1203181   0.4579137   0.0000000), wk =   0.0017361
        k(  299) = (  -0.1082863   0.4370995   0.0000000), wk =   0.0017361
        k(  300) = (  -0.0962545   0.4162852   0.0000000), wk =   0.0017361
        k(  301) = (  -0.0842227   0.3954709   0.0000000), wk =   0.0017361
        k(  302) = (  -0.0721908   0.3746567   0.0000000), wk =   0.0017361
        k(  303) = (  -0.0601590   0.3538424   0.0000000), wk =   0.0017361
        k(  304) = (  -0.0481272   0.3330282   0.0000000), wk =   0.0017361
        k(  305) = (  -0.0360954   0.3122139   0.0000000), wk =   0.0017361
        k(  306) = (  -0.0240636   0.2913996   0.0000000), wk =   0.0017361
        k(  307) = (  -0.0120318   0.2705854   0.0000000), wk =   0.0017361
        k(  308) = (   0.0000000   0.2497711   0.0000000), wk =   0.0017361
        k(  309) = (   0.0120318   0.2289569   0.0000000), wk =   0.0017361
        k(  310) = (   0.0240636   0.2081426   0.0000000), wk =   0.0017361
        k(  311) = (   0.0360954   0.1873283   0.0000000), wk =   0.0017361
        k(  312) = (   0.0481272   0.1665141   0.0000000), wk =   0.0017361
        k(  313) = (   0.0601590   0.1456998   0.0000000), wk =   0.0017361
        k(  314) = (   0.0842227   0.1456998   0.0000000), wk =   0.0017361
        k(  315) = (   0.0962545   0.1248856   0.0000000), wk =   0.0017361
        k(  316) = (   0.1082863   0.1040713   0.0000000), wk =   0.0017361
        k(  317) = (   0.1203181   0.0832570   0.0000000), wk =   0.0017361
        k(  318) = (   0.1323499   0.0624428   0.0000000), wk =   0.0017361
        k(  319) = (   0.1443817   0.0416285   0.0000000), wk =   0.0017361
        k(  320) = (   0.1564135   0.0208143   0.0000000), wk =   0.0017361
        k(  321) = (   0.1684453   0.0000000   0.0000000), wk =   0.0017361
        k(  322) = (   0.1804771  -0.0208143   0.0000000), wk =   0.0017361
        k(  323) = (   0.1925089  -0.0416285   0.0000000), wk =   0.0017361
        k(  324) = (   0.2045407  -0.0624428   0.0000000), wk =   0.0017361
        k(  325) = (   0.2165725  -0.0832570   0.0000000), wk =   0.0017361
        k(  326) = (   0.2286044  -0.1040713   0.0000000), wk =   0.0017361
        k(  327) = (   0.2406362  -0.1248856   0.0000000), wk =   0.0017361
        k(  328) = (   0.2526680  -0.1456998   0.0000000), wk =   0.0017361
        k(  329) = (   0.2646998  -0.1665141   0.0000000), wk =   0.0017361
        k(  330) = (   0.2767316  -0.1873283   0.0000000), wk =   0.0017361
        k(  331) = (   0.2887634  -0.2081426   0.0000000), wk =   0.0017361
        k(  332) = (   0.3007952  -0.2289569   0.0000000), wk =   0.0017361
        k(  333) = (   0.3128270  -0.2497711   0.0000000), wk =   0.0017361
        k(  334) = (   0.3248588  -0.2705854   0.0000000), wk =   0.0017361
        k(  335) = (   0.3368906  -0.2913996   0.0000000), wk =   0.0017361
        k(  336) = (   0.3489224  -0.3122139   0.0000000), wk =   0.0017361
        k(  337) = (   0.3609542  -0.3330282   0.0000000), wk =   0.0017361
        k(  338) = (  -0.2045407   0.6452421   0.0000000), wk =   0.0017361
        k(  339) = (  -0.1925089   0.6244278   0.0000000), wk =   0.0017361
        k(  340) = (  -0.1804771   0.6036135   0.0000000), wk =   0.0017361
        k(  341) = (  -0.1684453   0.5827993   0.0000000), wk =   0.0017361
        k(  342) = (  -0.1564135   0.5619850   0.0000000), wk =   0.0017361
        k(  343) = (  -0.1443817   0.5411708   0.0000000), wk =   0.0017361
        k(  344) = (  -0.1323499   0.5203565   0.0000000), wk =   0.0017361
        k(  345) = (  -0.1203181   0.4995422   0.0000000), wk =   0.0017361
        k(  346) = (  -0.1082863   0.4787280   0.0000000), wk =   0.0017361
        k(  347) = (  -0.0962545   0.4579137   0.0000000), wk =   0.0017361
        k(  348) = (  -0.0842227   0.4370995   0.0000000), wk =   0.0017361
        k(  349) = (  -0.0721908   0.4162852   0.0000000), wk =   0.0017361
        k(  350) = (  -0.0601590   0.3954709   0.0000000), wk =   0.0017361
        k(  351) = (  -0.0481272   0.3746567   0.0000000), wk =   0.0017361
        k(  352) = (  -0.0360954   0.3538424   0.0000000), wk =   0.0017361
        k(  353) = (  -0.0240636   0.3330282   0.0000000), wk =   0.0017361
        k(  354) = (  -0.0120318   0.3122139   0.0000000), wk =   0.0017361
        k(  355) = (   0.0000000   0.2913996   0.0000000), wk =   0.0017361
        k(  356) = (   0.0120318   0.2705854   0.0000000), wk =   0.0017361
        k(  357) = (   0.0240636   0.2497711   0.0000000), wk =   0.0017361
        k(  358) = (   0.0360954   0.2289569   0.0000000), wk =   0.0017361
        k(  359) = (   0.0481272   0.2081426   0.0000000), wk =   0.0017361
        k(  360) = (   0.0601590   0.1873283   0.0000000), wk =   0.0017361
        k(  361) = (   0.0721908   0.1665141   0.0000000), wk =   0.0017361
        k(  362) = (   0.0962545   0.1665141   0.0000000), wk =   0.0017361
        k(  363) = (   0.1082863   0.1456998   0.0000000), wk =   0.0017361
        k(  364) = (   0.1203181   0.1248856   0.0000000), wk =   0.0017361
        k(  365) = (   0.1323499   0.1040713   0.0000000), wk =   0.0017361
        k(  366) = (   0.1443817   0.0832570   0.0000000), wk =   0.0017361
        k(  367) = (   0.1564135   0.0624428   0.0000000), wk =   0.0017361
        k(  368) = (   0.1684453   0.0416285   0.0000000), wk =   0.0017361
        k(  369) = (   0.1804771   0.0208143   0.0000000), wk =   0.0017361
        k(  370) = (   0.1925089   0.0000000   0.0000000), wk =   0.0017361
        k(  371) = (   0.2045407  -0.0208143   0.0000000), wk =   0.0017361
        k(  372) = (   0.2165725  -0.0416285   0.0000000), wk =   0.0017361
        k(  373) = (   0.2286044  -0.0624428   0.0000000), wk =   0.0017361
        k(  374) = (   0.2406362  -0.0832570   0.0000000), wk =   0.0017361
        k(  375) = (   0.2526680  -0.1040713   0.0000000), wk =   0.0017361
        k(  376) = (   0.2646998  -0.1248856   0.0000000), wk =   0.0017361
        k(  377) = (   0.2767316  -0.1456998   0.0000000), wk =   0.0017361
        k(  378) = (   0.2887634  -0.1665141   0.0000000), wk =   0.0017361
        k(  379) = (   0.3007952  -0.1873283   0.0000000), wk =   0.0017361
        k(  380) = (   0.3128270  -0.2081426   0.0000000), wk =   0.0017361
        k(  381) = (   0.3248588  -0.2289569   0.0000000), wk =   0.0017361
        k(  382) = (   0.3368906  -0.2497711   0.0000000), wk =   0.0017361
        k(  383) = (   0.3489224  -0.2705854   0.0000000), wk =   0.0017361
        k(  384) = (   0.3609542  -0.2913996   0.0000000), wk =   0.0017361
        k(  385) = (   0.3729860  -0.3122139   0.0000000), wk =   0.0017361
        k(  386) = (  -0.1925089   0.6660563   0.0000000), wk =   0.0017361
        k(  387) = (  -0.1804771   0.6452421   0.0000000), wk =   0.0017361
        k(  388) = (  -0.1684453   0.6244278   0.0000000), wk =   0.0017361
        k(  389) = (  -0.1564135   0.6036135   0.0000000), wk =   0.0017361
        k(  390) = (  -0.1443817   0.5827993   0.0000000), wk =   0.0017361
        k(  391) = (  -0.1323499   0.5619850   0.0000000), wk =   0.0017361
        k(  392) = (  -0.1203181   0.5411708   0.0000000), wk =   0.0017361
        k(  393) = (  -0.1082863   0.5203565   0.0000000), wk =   0.0017361
        k(  394) = (  -0.0962545   0.4995422   0.0000000), wk =   0.0017361
        k(  395) = (  -0.0842227   0.4787280   0.0000000), wk =   0.0017361
        k(  396) = (  -0.0721908   0.4579137   0.0000000), wk =   0.0017361
        k(  397) = (  -0.0601590   0.4370995   0.0000000), wk =   0.0017361
        k(  398) = (  -0.0481272   0.4162852   0.0000000), wk =   0.0017361
        k(  399) = (  -0.0360954   0.3954709   0.0000000), wk =   0.0017361
        k(  400) = (  -0.0240636   0.3746567   0.0000000), wk =   0.0017361
        k(  401) = (  -0.0120318   0.3538424   0.0000000), wk =   0.0017361
        k(  402) = (   0.0000000   0.3330282   0.0000000), wk =   0.0017361
        k(  403) = (   0.0120318   0.3122139   0.0000000), wk =   0.0017361
        k(  404) = (   0.0240636   0.2913996   0.0000000), wk =   0.0017361
        k(  405) = (   0.0360954   0.2705854   0.0000000), wk =   0.0017361
        k(  406) = (   0.0481272   0.2497711   0.0000000), wk =   0.0017361
        k(  407) = (   0.0601590   0.2289569   0.0000000), wk =   0.0017361
        k(  408) = (   0.0721908   0.2081426   0.0000000), wk =   0.0017361
        k(  409) = (   0.0842227   0.1873283   0.0000000), wk =   0.0017361
        k(  410) = (   0.1082863   0.1873283   0.0000000), wk =   0.0017361
        k(  411) = (   0.1203181   0.1665141   0.0000000), wk =   0.0017361
        k(  412) = (   0.1323499   0.1456998   0.0000000), wk =   0.0017361
        k(  413) = (   0.1443817   0.1248856   0.0000000), wk =   0.0017361
        k(  414) = (   0.1564135   0.1040713   0.0000000), wk =   0.0017361
        k(  415) = (   0.1684453   0.0832570   0.0000000), wk =   0.0017361
        k(  416) = (   0.1804771   0.0624428   0.0000000), wk =   0.0017361
        k(  417) = (   0.1925089   0.0416285   0.0000000), wk =   0.0017361
        k(  418) = (   0.2045407   0.0208143   0.0000000), wk =   0.0017361
        k(  419) = (   0.2165725   0.0000000   0.0000000), wk =   0.0017361
        k(  420) = (   0.2286044  -0.0208143   0.0000000), wk =   0.0017361
        k(  421) = (   0.2406362  -0.0416285   0.0000000), wk =   0.0017361
        k(  422) = (   0.2526680  -0.0624428   0.0000000), wk =   0.0017361
        k(  423) = (   0.2646998  -0.0832570   0.0000000), wk =   0.0017361
        k(  424) = (   0.2767316  -0.1040713   0.0000000), wk =   0.0017361
        k(  425) = (   0.2887634  -0.1248856   0.0000000), wk =   0.0017361
        k(  426) = (   0.3007952  -0.1456998   0.0000000), wk =   0.0017361
        k(  427) = (   0.3128270  -0.1665141   0.0000000), wk =   0.0017361
        k(  428) = (   0.3248588  -0.1873283   0.0000000), wk =   0.0017361
        k(  429) = (   0.3368906  -0.2081426   0.0000000), wk =   0.0017361
        k(  430) = (   0.3489224  -0.2289569   0.0000000), wk =   0.0017361
        k(  431) = (   0.3609542  -0.2497711   0.0000000), wk =   0.0017361
        k(  432) = (   0.3729860  -0.2705854   0.0000000), wk =   0.0017361
        k(  433) = (   0.3850179  -0.2913996   0.0000000), wk =   0.0017361
        k(  434) = (  -0.1804771   0.6868706   0.0000000), wk =   0.0017361
        k(  435) = (  -0.1684453   0.6660563   0.0000000), wk =   0.0017361
        k(  436) = (  -0.1564135   0.6452421   0.0000000), wk =   0.0017361
        k(  437) = (  -0.1443817   0.6244278   0.0000000), wk =   0.0017361
        k(  438) = (  -0.1323499   0.6036135   0.0000000), wk =   0.0017361
        k(  439) = (  -0.1203181   0.5827993   0.0000000), wk =   0.0017361
        k(  440) = (  -0.1082863   0.5619850   0.0000000), wk =   0.0017361
        k(  441) = (  -0.0962545   0.5411708   0.0000000), wk =   0.0017361
        k(  442) = (  -0.0842227   0.5203565   0.0000000), wk =   0.0017361
        k(  443) = (  -0.0721908   0.4995422   0.0000000), wk =   0.0017361
        k(  444) = (  -0.0601590   0.4787280   0.0000000), wk =   0.0017361
        k(  445) = (  -0.0481272   0.4579137   0.0000000), wk =   0.0017361
        k(  446) = (  -0.0360954   0.4370995   0.0000000), wk =   0.0017361
        k(  447) = (  -0.0240636   0.4162852   0.0000000), wk =   0.0017361
        k(  448) = (  -0.0120318   0.3954709   0.0000000), wk =   0.0017361
        k(  449) = (   0.0000000   0.3746567   0.0000000), wk =   0.0017361
        k(  450) = (   0.0120318   0.3538424   0.0000000), wk =   0.0017361
        k(  451) = (   0.0240636   0.3330282   0.0000000), wk =   0.0017361
        k(  452) = (   0.0360954   0.3122139   0.0000000), wk =   0.0017361
        k(  453) = (   0.0481272   0.2913996   0.0000000), wk =   0.0017361
        k(  454) = (   0.0601590   0.2705854   0.0000000), wk =   0.0017361
        k(  455) = (   0.0721908   0.2497711   0.0000000), wk =   0.0017361
        k(  456) = (   0.0842227   0.2289569   0.0000000), wk =   0.0017361
        k(  457) = (   0.0962545   0.2081426   0.0000000), wk =   0.0017361
        k(  458) = (   0.1203181   0.2081426   0.0000000), wk =   0.0017361
        k(  459) = (   0.1323499   0.1873283   0.0000000), wk =   0.0017361
        k(  460) = (   0.1443817   0.1665141   0.0000000), wk =   0.0017361
        k(  461) = (   0.1564135   0.1456998   0.0000000), wk =   0.0017361
        k(  462) = (   0.1684453   0.1248856   0.0000000), wk =   0.0017361
        k(  463) = (   0.1804771   0.1040713   0.0000000), wk =   0.0017361
        k(  464) = (   0.1925089   0.0832570   0.0000000), wk =   0.0017361
        k(  465) = (   0.2045407   0.0624428   0.0000000), wk =   0.0017361
        k(  466) = (   0.2165725   0.0416285   0.0000000), wk =   0.0017361
        k(  467) = (   0.2286044   0.0208143   0.0000000), wk =   0.0017361
        k(  468) = (   0.2406362   0.0000000   0.0000000), wk =   0.0017361
        k(  469) = (   0.2526680  -0.0208143   0.0000000), wk =   0.0017361
        k(  470) = (   0.2646998  -0.0416285   0.0000000), wk =   0.0017361
        k(  471) = (   0.2767316  -0.0624428   0.0000000), wk =   0.0017361
        k(  472) = (   0.2887634  -0.0832570   0.0000000), wk =   0.0017361
        k(  473) = (   0.3007952  -0.1040713   0.0000000), wk =   0.0017361
        k(  474) = (   0.3128270  -0.1248856   0.0000000), wk =   0.0017361
        k(  475) = (   0.3248588  -0.1456998   0.0000000), wk =   0.0017361
        k(  476) = (   0.3368906  -0.1665141   0.0000000), wk =   0.0017361
        k(  477) = (   0.3489224  -0.1873283   0.0000000), wk =   0.0017361
        k(  478) = (   0.3609542  -0.2081426   0.0000000), wk =   0.0017361
        k(  479) = (   0.3729860  -0.2289569   0.0000000), wk =   0.0017361
        k(  480) = (   0.3850179  -0.2497711   0.0000000), wk =   0.0017361
        k(  481) = (   0.3970497  -0.2705854   0.0000000), wk =   0.0017361
        k(  482) = (  -0.1684453   0.7076848   0.0000000), wk =   0.0017361
        k(  483) = (  -0.1564135   0.6868706   0.0000000), wk =   0.0017361
        k(  484) = (  -0.1443817   0.6660563   0.0000000), wk =   0.0017361
        k(  485) = (  -0.1323499   0.6452421   0.0000000), wk =   0.0017361
        k(  486) = (  -0.1203181   0.6244278   0.0000000), wk =   0.0017361
        k(  487) = (  -0.1082863   0.6036135   0.0000000), wk =   0.0017361
        k(  488) = (  -0.0962545   0.5827993   0.0000000), wk =   0.0017361
        k(  489) = (  -0.0842227   0.5619850   0.0000000), wk =   0.0017361
        k(  490) = (  -0.0721908   0.5411708   0.0000000), wk =   0.0017361
        k(  491) = (  -0.0601590   0.5203565   0.0000000), wk =   0.0017361
        k(  492) = (  -0.0481272   0.4995422   0.0000000), wk =   0.0017361
        k(  493) = (  -0.0360954   0.4787280   0.0000000), wk =   0.0017361
        k(  494) = (  -0.0240636   0.4579137   0.0000000), wk =   0.0017361
        k(  495) = (  -0.0120318   0.4370995   0.0000000), wk =   0.0017361
        k(  496) = (   0.0000000   0.4162852   0.0000000), wk =   0.0017361
        k(  497) = (   0.0120318   0.3954709   0.0000000), wk =   0.0017361
        k(  498) = (   0.0240636   0.3746567   0.0000000), wk =   0.0017361
        k(  499) = (   0.0360954   0.3538424   0.0000000), wk =   0.0017361
        k(  500) = (   0.0481272   0.3330282   0.0000000), wk =   0.0017361
        k(  501) = (   0.0601590   0.3122139   0.0000000), wk =   0.0017361
        k(  502) = (   0.0721908   0.2913996   0.0000000), wk =   0.0017361
        k(  503) = (   0.0842227   0.2705854   0.0000000), wk =   0.0017361
        k(  504) = (   0.0962545   0.2497711   0.0000000), wk =   0.0017361
        k(  505) = (   0.1082863   0.2289569   0.0000000), wk =   0.0017361
        k(  506) = (   0.1323499   0.2289569   0.0000000), wk =   0.0017361
        k(  507) = (   0.1443817   0.2081426   0.0000000), wk =   0.0017361
        k(  508) = (   0.1564135   0.1873283   0.0000000), wk =   0.0017361
        k(  509) = (   0.1684453   0.1665141   0.0000000), wk =   0.0017361
        k(  510) = (   0.1804771   0.1456998   0.0000000), wk =   0.0017361
        k(  511) = (   0.1925089   0.1248856   0.0000000), wk =   0.0017361
        k(  512) = (   0.2045407   0.1040713   0.0000000), wk =   0.0017361
        k(  513) = (   0.2165725   0.0832570   0.0000000), wk =   0.0017361
        k(  514) = (   0.2286044   0.0624428   0.0000000), wk =   0.0017361
        k(  515) = (   0.2406362   0.0416285   0.0000000), wk =   0.0017361
        k(  516) = (   0.2526680   0.0208143   0.0000000), wk =   0.0017361
        k(  517) = (   0.2646998   0.0000000   0.0000000), wk =   0.0017361
        k(  518) = (   0.2767316  -0.0208143   0.0000000), wk =   0.0017361
        k(  519) = (   0.2887634  -0.0416285   0.0000000), wk =   0.0017361
        k(  520) = (   0.3007952  -0.0624428   0.0000000), wk =   0.0017361
        k(  521) = (   0.3128270  -0.0832570   0.0000000), wk =   0.0017361
        k(  522) = (   0.3248588  -0.1040713   0.0000000), wk =   0.0017361
        k(  523) = (   0.3368906  -0.1248856   0.0000000), wk =   0.0017361
        k(  524) = (   0.3489224  -0.1456998   0.0000000), wk =   0.0017361
        k(  525) = (   0.3609542  -0.1665141   0.0000000), wk =   0.0017361
        k(  526) = (   0.3729860  -0.1873283   0.0000000), wk =   0.0017361
        k(  527) = (   0.3850179  -0.2081426   0.0000000), wk =   0.0017361
        k(  528) = (   0.3970497  -0.2289569   0.0000000), wk =   0.0017361
        k(  529) = (   0.4090815  -0.2497711   0.0000000), wk =   0.0017361
        k(  530) = (  -0.1564135   0.7284991   0.0000000), wk =   0.0017361
        k(  531) = (  -0.1443817   0.7076848   0.0000000), wk =   0.0017361
        k(  532) = (  -0.1323499   0.6868706   0.0000000), wk =   0.0017361
        k(  533) = (  -0.1203181   0.6660563   0.0000000), wk =   0.0017361
        k(  534) = (  -0.1082863   0.6452421   0.0000000), wk =   0.0017361
        k(  535) = (  -0.0962545   0.6244278   0.0000000), wk =   0.0017361
        k(  536) = (  -0.0842227   0.6036135   0.0000000), wk =   0.0017361
        k(  537) = (  -0.0721908   0.5827993   0.0000000), wk =   0.0017361
        k(  538) = (  -0.0601590   0.5619850   0.0000000), wk =   0.0017361
        k(  539) = (  -0.0481272   0.5411708   0.0000000), wk =   0.0017361
        k(  540) = (  -0.0360954   0.5203565   0.0000000), wk =   0.0017361
        k(  541) = (  -0.0240636   0.4995422   0.0000000), wk =   0.0017361
        k(  542) = (  -0.0120318   0.4787280   0.0000000), wk =   0.0017361
        k(  543) = (   0.0000000   0.4579137   0.0000000), wk =   0.0017361
        k(  544) = (   0.0120318   0.4370995   0.0000000), wk =   0.0017361
        k(  545) = (   0.0240636   0.4162852   0.0000000), wk =   0.0017361
        k(  546) = (   0.0360954   0.3954709   0.0000000), wk =   0.0017361
        k(  547) = (   0.0481272   0.3746567   0.0000000), wk =   0.0017361
        k(  548) = (   0.0601590   0.3538424   0.0000000), wk =   0.0017361
        k(  549) = (   0.0721908   0.3330282   0.0000000), wk =   0.0017361
        k(  550) = (   0.0842227   0.3122139   0.0000000), wk =   0.0017361
        k(  551) = (   0.0962545   0.2913996   0.0000000), wk =   0.0017361
        k(  552) = (   0.1082863   0.2705854   0.0000000), wk =   0.0017361
        k(  553) = (   0.1203181   0.2497711   0.0000000), wk =   0.0017361
        k(  554) = (   0.1443817   0.2497711   0.0000000), wk =   0.0017361
        k(  555) = (   0.1564135   0.2289569   0.0000000), wk =   0.0017361
        k(  556) = (   0.1684453   0.2081426   0.0000000), wk =   0.0017361
        k(  557) = (   0.1804771   0.1873283   0.0000000), wk =   0.0017361
        k(  558) = (   0.1925089   0.1665141   0.0000000), wk =   0.0017361
        k(  559) = (   0.2045407   0.1456998   0.0000000), wk =   0.0017361
        k(  560) = (   0.2165725   0.1248856   0.0000000), wk =   0.0017361
        k(  561) = (   0.2286044   0.1040713   0.0000000), wk =   0.0017361
        k(  562) = (   0.2406362   0.0832570   0.0000000), wk =   0.0017361
        k(  563) = (   0.2526680   0.0624428   0.0000000), wk =   0.0017361
        k(  564) = (   0.2646998   0.0416285   0.0000000), wk =   0.0017361
        k(  565) = (   0.2767316   0.0208143   0.0000000), wk =   0.0017361
        k(  566) = (   0.2887634   0.0000000   0.0000000), wk =   0.0017361
        k(  567) = (   0.3007952  -0.0208143   0.0000000), wk =   0.0017361
        k(  568) = (   0.3128270  -0.0416285   0.0000000), wk =   0.0017361
        k(  569) = (   0.3248588  -0.0624428   0.0000000), wk =   0.0017361
        k(  570) = (   0.3368906  -0.0832570   0.0000000), wk =   0.0017361
        k(  571) = (   0.3489224  -0.1040713   0.0000000), wk =   0.0017361
        k(  572) = (   0.3609542  -0.1248856   0.0000000), wk =   0.0017361
        k(  573) = (   0.3729860  -0.1456998   0.0000000), wk =   0.0017361
        k(  574) = (   0.3850179  -0.1665141   0.0000000), wk =   0.0017361
        k(  575) = (   0.3970497  -0.1873283   0.0000000), wk =   0.0017361
        k(  576) = (   0.4090815  -0.2081426   0.0000000), wk =   0.0017361
        k(  577) = (   0.4211133  -0.2289569   0.0000000), wk =   0.0017361
        k(  578) = (  -0.1443817   0.7493134   0.0000000), wk =   0.0017361
        k(  579) = (  -0.1323499   0.7284991   0.0000000), wk =   0.0017361
        k(  580) = (  -0.1203181   0.7076848   0.0000000), wk =   0.0017361
        k(  581) = (  -0.1082863   0.6868706   0.0000000), wk =   0.0017361
        k(  582) = (  -0.0962545   0.6660563   0.0000000), wk =   0.0017361
        k(  583) = (  -0.0842227   0.6452421   0.0000000), wk =   0.0017361
        k(  584) = (  -0.0721908   0.6244278   0.0000000), wk =   0.0017361
        k(  585) = (  -0.0601590   0.6036135   0.0000000), wk =   0.0017361
        k(  586) = (  -0.0481272   0.5827993   0.0000000), wk =   0.0017361
        k(  587) = (  -0.0360954   0.5619850   0.0000000), wk =   0.0017361
        k(  588) = (  -0.0240636   0.5411708   0.0000000), wk =   0.0017361
        k(  589) = (  -0.0120318   0.5203565   0.0000000), wk =   0.0017361
        k(  590) = (   0.0000000   0.4995422   0.0000000), wk =   0.0017361
        k(  591) = (   0.0120318   0.4787280   0.0000000), wk =   0.0017361
        k(  592) = (   0.0240636   0.4579137   0.0000000), wk =   0.0017361
        k(  593) = (   0.0360954   0.4370995   0.0000000), wk =   0.0017361
        k(  594) = (   0.0481272   0.4162852   0.0000000), wk =   0.0017361
        k(  595) = (   0.0601590   0.3954709   0.0000000), wk =   0.0017361
        k(  596) = (   0.0721908   0.3746567   0.0000000), wk =   0.0017361
        k(  597) = (   0.0842227   0.3538424   0.0000000), wk =   0.0017361
        k(  598) = (   0.0962545   0.3330282   0.0000000), wk =   0.0017361
        k(  599) = (   0.1082863   0.3122139   0.0000000), wk =   0.0017361
        k(  600) = (   0.1203181   0.2913996   0.0000000), wk =   0.0017361
        k(  601) = (   0.1323499   0.2705854   0.0000000), wk =   0.0017361
        k(  602) = (   0.1564135   0.2705854   0.0000000), wk =   0.0017361
        k(  603) = (   0.1684453   0.2497711   0.0000000), wk =   0.0017361
        k(  604) = (   0.1804771   0.2289569   0.0000000), wk =   0.0017361
        k(  605) = (   0.1925089   0.2081426   0.0000000), wk =   0.0017361
        k(  606) = (   0.2045407   0.1873283   0.0000000), wk =   0.0017361
        k(  607) = (   0.2165725   0.1665141   0.0000000), wk =   0.0017361
        k(  608) = (   0.2286044   0.1456998   0.0000000), wk =   0.0017361
        k(  609) = (   0.2406362   0.1248856   0.0000000), wk =   0.0017361
        k(  610) = (   0.2526680   0.1040713   0.0000000), wk =   0.0017361
        k(  611) = (   0.2646998   0.0832570   0.0000000), wk =   0.0017361
        k(  612) = (   0.2767316   0.0624428   0.0000000), wk =   0.0017361
        k(  613) = (   0.2887634   0.0416285   0.0000000), wk =   0.0017361
        k(  614) = (   0.3007952   0.0208143   0.0000000), wk =   0.0017361
        k(  615) = (   0.3128270   0.0000000   0.0000000), wk =   0.0017361
        k(  616) = (   0.3248588  -0.0208143   0.0000000), wk =   0.0017361
        k(  617) = (   0.3368906  -0.0416285   0.0000000), wk =   0.0017361
        k(  618) = (   0.3489224  -0.0624428   0.0000000), wk =   0.0017361
        k(  619) = (   0.3609542  -0.0832570   0.0000000), wk =   0.0017361
        k(  620) = (   0.3729860  -0.1040713   0.0000000), wk =   0.0017361
        k(  621) = (   0.3850179  -0.1248856   0.0000000), wk =   0.0017361
        k(  622) = (   0.3970497  -0.1456998   0.0000000), wk =   0.0017361
        k(  623) = (   0.4090815  -0.1665141   0.0000000), wk =   0.0017361
        k(  624) = (   0.4211133  -0.1873283   0.0000000), wk =   0.0017361
        k(  625) = (   0.4331451  -0.2081426   0.0000000), wk =   0.0017361
        k(  626) = (  -0.1323499   0.7701276   0.0000000), wk =   0.0017361
        k(  627) = (  -0.1203181   0.7493134   0.0000000), wk =   0.0017361
        k(  628) = (  -0.1082863   0.7284991   0.0000000), wk =   0.0017361
        k(  629) = (  -0.0962545   0.7076848   0.0000000), wk =   0.0017361
        k(  630) = (  -0.0842227   0.6868706   0.0000000), wk =   0.0017361
        k(  631) = (  -0.0721908   0.6660563   0.0000000), wk =   0.0017361
        k(  632) = (  -0.0601590   0.6452421   0.0000000), wk =   0.0017361
        k(  633) = (  -0.0481272   0.6244278   0.0000000), wk =   0.0017361
        k(  634) = (  -0.0360954   0.6036135   0.0000000), wk =   0.0017361
        k(  635) = (  -0.0240636   0.5827993   0.0000000), wk =   0.0017361
        k(  636) = (  -0.0120318   0.5619850   0.0000000), wk =   0.0017361
        k(  637) = (   0.0000000   0.5411708   0.0000000), wk =   0.0017361
        k(  638) = (   0.0120318   0.5203565   0.0000000), wk =   0.0017361
        k(  639) = (   0.0240636   0.4995422   0.0000000), wk =   0.0017361
        k(  640) = (   0.0360954   0.4787280   0.0000000), wk =   0.0017361
        k(  641) = (   0.0481272   0.4579137   0.0000000), wk =   0.0017361
        k(  642) = (   0.0601590   0.4370995   0.0000000), wk =   0.0017361
        k(  643) = (   0.0721908   0.4162852   0.0000000), wk =   0.0017361
        k(  644) = (   0.0842227   0.3954709   0.0000000), wk =   0.0017361
        k(  645) = (   0.0962545   0.3746567   0.0000000), wk =   0.0017361
        k(  646) = (   0.1082863   0.3538424   0.0000000), wk =   0.0017361
        k(  647) = (   0.1203181   0.3330282   0.0000000), wk =   0.0017361
        k(  648) = (   0.1323499   0.3122139   0.0000000), wk =   0.0017361
        k(  649) = (   0.1443817   0.2913996   0.0000000), wk =   0.0017361
        k(  650) = (   0.1684453   0.2913996   0.0000000), wk =   0.0017361
        k(  651) = (   0.1804771   0.2705854   0.0000000), wk =   0.0017361
        k(  652) = (   0.1925089   0.2497711   0.0000000), wk =   0.0017361
        k(  653) = (   0.2045407   0.2289569   0.0000000), wk =   0.0017361
        k(  654) = (   0.2165725   0.2081426   0.0000000), wk =   0.0017361
        k(  655) = (   0.2286044   0.1873283   0.0000000), wk =   0.0017361
        k(  656) = (   0.2406362   0.1665141   0.0000000), wk =   0.0017361
        k(  657) = (   0.2526680   0.1456998   0.0000000), wk =   0.0017361
        k(  658) = (   0.2646998   0.1248856   0.0000000), wk =   0.0017361
        k(  659) = (   0.2767316   0.1040713   0.0000000), wk =   0.0017361
        k(  660) = (   0.2887634   0.0832570   0.0000000), wk =   0.0017361
        k(  661) = (   0.3007952   0.0624428   0.0000000), wk =   0.0017361
        k(  662) = (   0.3128270   0.0416285   0.0000000), wk =   0.0017361
        k(  663) = (   0.3248588   0.0208143   0.0000000), wk =   0.0017361
        k(  664) = (   0.3368906   0.0000000   0.0000000), wk =   0.0017361
        k(  665) = (   0.3489224  -0.0208143   0.0000000), wk =   0.0017361
        k(  666) = (   0.3609542  -0.0416285   0.0000000), wk =   0.0017361
        k(  667) = (   0.3729860  -0.0624428   0.0000000), wk =   0.0017361
        k(  668) = (   0.3850179  -0.0832570   0.0000000), wk =   0.0017361
        k(  669) = (   0.3970497  -0.1040713   0.0000000), wk =   0.0017361
        k(  670) = (   0.4090815  -0.1248856   0.0000000), wk =   0.0017361
        k(  671) = (   0.4211133  -0.1456998   0.0000000), wk =   0.0017361
        k(  672) = (   0.4331451  -0.1665141   0.0000000), wk =   0.0017361
        k(  673) = (   0.4451769  -0.1873283   0.0000000), wk =   0.0017361
        k(  674) = (  -0.1203181   0.7909419   0.0000000), wk =   0.0017361
        k(  675) = (  -0.1082863   0.7701276   0.0000000), wk =   0.0017361
        k(  676) = (  -0.0962545   0.7493134   0.0000000), wk =   0.0017361
        k(  677) = (  -0.0842227   0.7284991   0.0000000), wk =   0.0017361
        k(  678) = (  -0.0721908   0.7076848   0.0000000), wk =   0.0017361
        k(  679) = (  -0.0601590   0.6868706   0.0000000), wk =   0.0017361
        k(  680) = (  -0.0481272   0.6660563   0.0000000), wk =   0.0017361
        k(  681) = (  -0.0360954   0.6452421   0.0000000), wk =   0.0017361
        k(  682) = (  -0.0240636   0.6244278   0.0000000), wk =   0.0017361
        k(  683) = (  -0.0120318   0.6036135   0.0000000), wk =   0.0017361
        k(  684) = (   0.0000000   0.5827993   0.0000000), wk =   0.0017361
        k(  685) = (   0.0120318   0.5619850   0.0000000), wk =   0.0017361
        k(  686) = (   0.0240636   0.5411708   0.0000000), wk =   0.0017361
        k(  687) = (   0.0360954   0.5203565   0.0000000), wk =   0.0017361
        k(  688) = (   0.0481272   0.4995422   0.0000000), wk =   0.0017361
        k(  689) = (   0.0601590   0.4787280   0.0000000), wk =   0.0017361
        k(  690) = (   0.0721908   0.4579137   0.0000000), wk =   0.0017361
        k(  691) = (   0.0842227   0.4370995   0.0000000), wk =   0.0017361
        k(  692) = (   0.0962545   0.4162852   0.0000000), wk =   0.0017361
        k(  693) = (   0.1082863   0.3954709   0.0000000), wk =   0.0017361
        k(  694) = (   0.1203181   0.3746567   0.0000000), wk =   0.0017361
        k(  695) = (   0.1323499   0.3538424   0.0000000), wk =   0.0017361
        k(  696) = (   0.1443817   0.3330282   0.0000000), wk =   0.0017361
        k(  697) = (   0.1564135   0.3122139   0.0000000), wk =   0.0017361
        k(  698) = (   0.1804771   0.3122139   0.0000000), wk =   0.0017361
        k(  699) = (   0.1925089   0.2913996   0.0000000), wk =   0.0017361
        k(  700) = (   0.2045407   0.2705854   0.0000000), wk =   0.0017361
        k(  701) = (   0.2165725   0.2497711   0.0000000), wk =   0.0017361
        k(  702) = (   0.2286044   0.2289569   0.0000000), wk =   0.0017361
        k(  703) = (   0.2406362   0.2081426   0.0000000), wk =   0.0017361
        k(  704) = (   0.2526680   0.1873283   0.0000000), wk =   0.0017361
        k(  705) = (   0.2646998   0.1665141   0.0000000), wk =   0.0017361
        k(  706) = (   0.2767316   0.1456998   0.0000000), wk =   0.0017361
        k(  707) = (   0.2887634   0.1248856   0.0000000), wk =   0.0017361
        k(  708) = (   0.3007952   0.1040713   0.0000000), wk =   0.0017361
        k(  709) = (   0.3128270   0.0832570   0.0000000), wk =   0.0017361
        k(  710) = (   0.3248588   0.0624428   0.0000000), wk =   0.0017361
        k(  711) = (   0.3368906   0.0416285   0.0000000), wk =   0.0017361
        k(  712) = (   0.3489224   0.0208143   0.0000000), wk =   0.0017361
        k(  713) = (   0.3609542   0.0000000   0.0000000), wk =   0.0017361
        k(  714) = (   0.3729860  -0.0208143   0.0000000), wk =   0.0017361
        k(  715) = (   0.3850179  -0.0416285   0.0000000), wk =   0.0017361
        k(  716) = (   0.3970497  -0.0624428   0.0000000), wk =   0.0017361
        k(  717) = (   0.4090815  -0.0832570   0.0000000), wk =   0.0017361
        k(  718) = (   0.4211133  -0.1040713   0.0000000), wk =   0.0017361
        k(  719) = (   0.4331451  -0.1248856   0.0000000), wk =   0.0017361
        k(  720) = (   0.4451769  -0.1456998   0.0000000), wk =   0.0017361
        k(  721) = (   0.4572087  -0.1665141   0.0000000), wk =   0.0017361
        k(  722) = (  -0.1082863   0.8117561   0.0000000), wk =   0.0017361
        k(  723) = (  -0.0962545   0.7909419   0.0000000), wk =   0.0017361
        k(  724) = (  -0.0842227   0.7701276   0.0000000), wk =   0.0017361
        k(  725) = (  -0.0721908   0.7493134   0.0000000), wk =   0.0017361
        k(  726) = (  -0.0601590   0.7284991   0.0000000), wk =   0.0017361
        k(  727) = (  -0.0481272   0.7076848   0.0000000), wk =   0.0017361
        k(  728) = (  -0.0360954   0.6868706   0.0000000), wk =   0.0017361
        k(  729) = (  -0.0240636   0.6660563   0.0000000), wk =   0.0017361
        k(  730) = (  -0.0120318   0.6452421   0.0000000), wk =   0.0017361
        k(  731) = (   0.0000000   0.6244278   0.0000000), wk =   0.0017361
        k(  732) = (   0.0120318   0.6036135   0.0000000), wk =   0.0017361
        k(  733) = (   0.0240636   0.5827993   0.0000000), wk =   0.0017361
        k(  734) = (   0.0360954   0.5619850   0.0000000), wk =   0.0017361
        k(  735) = (   0.0481272   0.5411708   0.0000000), wk =   0.0017361
        k(  736) = (   0.0601590   0.5203565   0.0000000), wk =   0.0017361
        k(  737) = (   0.0721908   0.4995422   0.0000000), wk =   0.0017361
        k(  738) = (   0.0842227   0.4787280   0.0000000), wk =   0.0017361
        k(  739) = (   0.0962545   0.4579137   0.0000000), wk =   0.0017361
        k(  740) = (   0.1082863   0.4370995   0.0000000), wk =   0.0017361
        k(  741) = (   0.1203181   0.4162852   0.0000000), wk =   0.0017361
        k(  742) = (   0.1323499   0.3954709   0.0000000), wk =   0.0017361
        k(  743) = (   0.1443817   0.3746567   0.0000000), wk =   0.0017361
        k(  744) = (   0.1564135   0.3538424   0.0000000), wk =   0.0017361
        k(  745) = (   0.1684453   0.3330282   0.0000000), wk =   0.0017361
        k(  746) = (   0.1925089   0.3330282   0.0000000), wk =   0.0017361
        k(  747) = (   0.2045407   0.3122139   0.0000000), wk =   0.0017361
        k(  748) = (   0.2165725   0.2913996   0.0000000), wk =   0.0017361
        k(  749) = (   0.2286044   0.2705854   0.0000000), wk =   0.0017361
        k(  750) = (   0.2406362   0.2497711   0.0000000), wk =   0.0017361
        k(  751) = (   0.2526680   0.2289569   0.0000000), wk =   0.0017361
        k(  752) = (   0.2646998   0.2081426   0.0000000), wk =   0.0017361
        k(  753) = (   0.2767316   0.1873283   0.0000000), wk =   0.0017361
        k(  754) = (   0.2887634   0.1665141   0.0000000), wk =   0.0017361
        k(  755) = (   0.3007952   0.1456998   0.0000000), wk =   0.0017361
        k(  756) = (   0.3128270   0.1248856   0.0000000), wk =   0.0017361
        k(  757) = (   0.3248588   0.1040713   0.0000000), wk =   0.0017361
        k(  758) = (   0.3368906   0.0832570   0.0000000), wk =   0.0017361
        k(  759) = (   0.3489224   0.0624428   0.0000000), wk =   0.0017361
        k(  760) = (   0.3609542   0.0416285   0.0000000), wk =   0.0017361
        k(  761) = (   0.3729860   0.0208143   0.0000000), wk =   0.0017361
        k(  762) = (   0.3850179   0.0000000   0.0000000), wk =   0.0017361
        k(  763) = (   0.3970497  -0.0208143   0.0000000), wk =   0.0017361
        k(  764) = (   0.4090815  -0.0416285   0.0000000), wk =   0.0017361
        k(  765) = (   0.4211133  -0.0624428   0.0000000), wk =   0.0017361
        k(  766) = (   0.4331451  -0.0832570   0.0000000), wk =   0.0017361
        k(  767) = (   0.4451769  -0.1040713   0.0000000), wk =   0.0017361
        k(  768) = (   0.4572087  -0.1248856   0.0000000), wk =   0.0017361
        k(  769) = (   0.4692405  -0.1456998   0.0000000), wk =   0.0017361
        k(  770) = (  -0.0962545   0.8325704   0.0000000), wk =   0.0017361
        k(  771) = (  -0.0842227   0.8117561   0.0000000), wk =   0.0017361
        k(  772) = (  -0.0721908   0.7909419   0.0000000), wk =   0.0017361
        k(  773) = (  -0.0601590   0.7701276   0.0000000), wk =   0.0017361
        k(  774) = (  -0.0481272   0.7493134   0.0000000), wk =   0.0017361
        k(  775) = (  -0.0360954   0.7284991   0.0000000), wk =   0.0017361
        k(  776) = (  -0.0240636   0.7076848   0.0000000), wk =   0.0017361
        k(  777) = (  -0.0120318   0.6868706   0.0000000), wk =   0.0017361
        k(  778) = (   0.0000000   0.6660563   0.0000000), wk =   0.0017361
        k(  779) = (   0.0120318   0.6452421   0.0000000), wk =   0.0017361
        k(  780) = (   0.0240636   0.6244278   0.0000000), wk =   0.0017361
        k(  781) = (   0.0360954   0.6036135   0.0000000), wk =   0.0017361
        k(  782) = (   0.0481272   0.5827993   0.0000000), wk =   0.0017361
        k(  783) = (   0.0601590   0.5619850   0.0000000), wk =   0.0017361
        k(  784) = (   0.0721908   0.5411708   0.0000000), wk =   0.0017361
        k(  785) = (   0.0842227   0.5203565   0.0000000), wk =   0.0017361
        k(  786) = (   0.0962545   0.4995422   0.0000000), wk =   0.0017361
        k(  787) = (   0.1082863   0.4787280   0.0000000), wk =   0.0017361
        k(  788) = (   0.1203181   0.4579137   0.0000000), wk =   0.0017361
        k(  789) = (   0.1323499   0.4370995   0.0000000), wk =   0.0017361
        k(  790) = (   0.1443817   0.4162852   0.0000000), wk =   0.0017361
        k(  791) = (   0.1564135   0.3954709   0.0000000), wk =   0.0017361
        k(  792) = (   0.1684453   0.3746567   0.0000000), wk =   0.0017361
        k(  793) = (   0.1804771   0.3538424   0.0000000), wk =   0.0017361
        k(  794) = (   0.2045407   0.3538424   0.0000000), wk =   0.0017361
        k(  795) = (   0.2165725   0.3330282   0.0000000), wk =   0.0017361
        k(  796) = (   0.2286044   0.3122139   0.0000000), wk =   0.0017361
        k(  797) = (   0.2406362   0.2913996   0.0000000), wk =   0.0017361
        k(  798) = (   0.2526680   0.2705854   0.0000000), wk =   0.0017361
        k(  799) = (   0.2646998   0.2497711   0.0000000), wk =   0.0017361
        k(  800) = (   0.2767316   0.2289569   0.0000000), wk =   0.0017361
        k(  801) = (   0.2887634   0.2081426   0.0000000), wk =   0.0017361
        k(  802) = (   0.3007952   0.1873283   0.0000000), wk =   0.0017361
        k(  803) = (   0.3128270   0.1665141   0.0000000), wk =   0.0017361
        k(  804) = (   0.3248588   0.1456998   0.0000000), wk =   0.0017361
        k(  805) = (   0.3368906   0.1248856   0.0000000), wk =   0.0017361
        k(  806) = (   0.3489224   0.1040713   0.0000000), wk =   0.0017361
        k(  807) = (   0.3609542   0.0832570   0.0000000), wk =   0.0017361
        k(  808) = (   0.3729860   0.0624428   0.0000000), wk =   0.0017361
        k(  809) = (   0.3850179   0.0416285   0.0000000), wk =   0.0017361
        k(  810) = (   0.3970497   0.0208143   0.0000000), wk =   0.0017361
        k(  811) = (   0.4090815   0.0000000   0.0000000), wk =   0.0017361
        k(  812) = (   0.4211133  -0.0208143   0.0000000), wk =   0.0017361
        k(  813) = (   0.4331451  -0.0416285   0.0000000), wk =   0.0017361
        k(  814) = (   0.4451769  -0.0624428   0.0000000), wk =   0.0017361
        k(  815) = (   0.4572087  -0.0832570   0.0000000), wk =   0.0017361
        k(  816) = (   0.4692405  -0.1040713   0.0000000), wk =   0.0017361
        k(  817) = (   0.4812723  -0.1248856   0.0000000), wk =   0.0017361
        k(  818) = (  -0.0842227   0.8533847   0.0000000), wk =   0.0017361
        k(  819) = (  -0.0721908   0.8325704   0.0000000), wk =   0.0017361
        k(  820) = (  -0.0601590   0.8117561   0.0000000), wk =   0.0017361
        k(  821) = (  -0.0481272   0.7909419   0.0000000), wk =   0.0017361
        k(  822) = (  -0.0360954   0.7701276   0.0000000), wk =   0.0017361
        k(  823) = (  -0.0240636   0.7493134   0.0000000), wk =   0.0017361
        k(  824) = (  -0.0120318   0.7284991   0.0000000), wk =   0.0017361
        k(  825) = (   0.0000000   0.7076848   0.0000000), wk =   0.0017361
        k(  826) = (   0.0120318   0.6868706   0.0000000), wk =   0.0017361
        k(  827) = (   0.0240636   0.6660563   0.0000000), wk =   0.0017361
        k(  828) = (   0.0360954   0.6452421   0.0000000), wk =   0.0017361
        k(  829) = (   0.0481272   0.6244278   0.0000000), wk =   0.0017361
        k(  830) = (   0.0601590   0.6036135   0.0000000), wk =   0.0017361
        k(  831) = (   0.0721908   0.5827993   0.0000000), wk =   0.0017361
        k(  832) = (   0.0842227   0.5619850   0.0000000), wk =   0.0017361
        k(  833) = (   0.0962545   0.5411708   0.0000000), wk =   0.0017361
        k(  834) = (   0.1082863   0.5203565   0.0000000), wk =   0.0017361
        k(  835) = (   0.1203181   0.4995422   0.0000000), wk =   0.0017361
        k(  836) = (   0.1323499   0.4787280   0.0000000), wk =   0.0017361
        k(  837) = (   0.1443817   0.4579137   0.0000000), wk =   0.0017361
        k(  838) = (   0.1564135   0.4370995   0.0000000), wk =   0.0017361
        k(  839) = (   0.1684453   0.4162852   0.0000000), wk =   0.0017361
        k(  840) = (   0.1804771   0.3954709   0.0000000), wk =   0.0017361
        k(  841) = (   0.1925089   0.3746567   0.0000000), wk =   0.0017361
        k(  842) = (   0.2165725   0.3746567   0.0000000), wk =   0.0017361
        k(  843) = (   0.2286044   0.3538424   0.0000000), wk =   0.0017361
        k(  844) = (   0.2406362   0.3330282   0.0000000), wk =   0.0017361
        k(  845) = (   0.2526680   0.3122139   0.0000000), wk =   0.0017361
        k(  846) = (   0.2646998   0.2913996   0.0000000), wk =   0.0017361
        k(  847) = (   0.2767316   0.2705854   0.0000000), wk =   0.0017361
        k(  848) = (   0.2887634   0.2497711   0.0000000), wk =   0.0017361
        k(  849) = (   0.3007952   0.2289569   0.0000000), wk =   0.0017361
        k(  850) = (   0.3128270   0.2081426   0.0000000), wk =   0.0017361
        k(  851) = (   0.3248588   0.1873283   0.0000000), wk =   0.0017361
        k(  852) = (   0.3368906   0.1665141   0.0000000), wk =   0.0017361
        k(  853) = (   0.3489224   0.1456998   0.0000000), wk =   0.0017361
        k(  854) = (   0.3609542   0.1248856   0.0000000), wk =   0.0017361
        k(  855) = (   0.3729860   0.1040713   0.0000000), wk =   0.0017361
        k(  856) = (   0.3850179   0.0832570   0.0000000), wk =   0.0017361
        k(  857) = (   0.3970497   0.0624428   0.0000000), wk =   0.0017361
        k(  858) = (   0.4090815   0.0416285   0.0000000), wk =   0.0017361
        k(  859) = (   0.4211133   0.0208143   0.0000000), wk =   0.0017361
        k(  860) = (   0.4331451   0.0000000   0.0000000), wk =   0.0017361
        k(  861) = (   0.4451769  -0.0208143   0.0000000), wk =   0.0017361
        k(  862) = (   0.4572087  -0.0416285   0.0000000), wk =   0.0017361
        k(  863) = (   0.4692405  -0.0624428   0.0000000), wk =   0.0017361
        k(  864) = (   0.4812723  -0.0832570   0.0000000), wk =   0.0017361
        k(  865) = (   0.4933041  -0.1040713   0.0000000), wk =   0.0017361
        k(  866) = (  -0.0721908   0.8741989   0.0000000), wk =   0.0017361
        k(  867) = (  -0.0601590   0.8533847   0.0000000), wk =   0.0017361
        k(  868) = (  -0.0481272   0.8325704   0.0000000), wk =   0.0017361
        k(  869) = (  -0.0360954   0.8117561   0.0000000), wk =   0.0017361
        k(  870) = (  -0.0240636   0.7909419   0.0000000), wk =   0.0017361
        k(  871) = (  -0.0120318   0.7701276   0.0000000), wk =   0.0017361
        k(  872) = (   0.0000000   0.7493134   0.0000000), wk =   0.0017361
        k(  873) = (   0.0120318   0.7284991   0.0000000), wk =   0.0017361
        k(  874) = (   0.0240636   0.7076848   0.0000000), wk =   0.0017361
        k(  875) = (   0.0360954   0.6868706   0.0000000), wk =   0.0017361
        k(  876) = (   0.0481272   0.6660563   0.0000000), wk =   0.0017361
        k(  877) = (   0.0601590   0.6452421   0.0000000), wk =   0.0017361
        k(  878) = (   0.0721908   0.6244278   0.0000000), wk =   0.0017361
        k(  879) = (   0.0842227   0.6036135   0.0000000), wk =   0.0017361
        k(  880) = (   0.0962545   0.5827993   0.0000000), wk =   0.0017361
        k(  881) = (   0.1082863   0.5619850   0.0000000), wk =   0.0017361
        k(  882) = (   0.1203181   0.5411708   0.0000000), wk =   0.0017361
        k(  883) = (   0.1323499   0.5203565   0.0000000), wk =   0.0017361
        k(  884) = (   0.1443817   0.4995422   0.0000000), wk =   0.0017361
        k(  885) = (   0.1564135   0.4787280   0.0000000), wk =   0.0017361
        k(  886) = (   0.1684453   0.4579137   0.0000000), wk =   0.0017361
        k(  887) = (   0.1804771   0.4370995   0.0000000), wk =   0.0017361
        k(  888) = (   0.1925089   0.4162852   0.0000000), wk =   0.0017361
        k(  889) = (   0.2045407   0.3954709   0.0000000), wk =   0.0017361
        k(  890) = (   0.2286044   0.3954709   0.0000000), wk =   0.0017361
        k(  891) = (   0.2406362   0.3746567   0.0000000), wk =   0.0017361
        k(  892) = (   0.2526680   0.3538424   0.0000000), wk =   0.0017361
        k(  893) = (   0.2646998   0.3330282   0.0000000), wk =   0.0017361
        k(  894) = (   0.2767316   0.3122139   0.0000000), wk =   0.0017361
        k(  895) = (   0.2887634   0.2913996   0.0000000), wk =   0.0017361
        k(  896) = (   0.3007952   0.2705854   0.0000000), wk =   0.0017361
        k(  897) = (   0.3128270   0.2497711   0.0000000), wk =   0.0017361
        k(  898) = (   0.3248588   0.2289569   0.0000000), wk =   0.0017361
        k(  899) = (   0.3368906   0.2081426   0.0000000), wk =   0.0017361
        k(  900) = (   0.3489224   0.1873283   0.0000000), wk =   0.0017361
        k(  901) = (   0.3609542   0.1665141   0.0000000), wk =   0.0017361
        k(  902) = (   0.3729860   0.1456998   0.0000000), wk =   0.0017361
        k(  903) = (   0.3850179   0.1248856   0.0000000), wk =   0.0017361
        k(  904) = (   0.3970497   0.1040713   0.0000000), wk =   0.0017361
        k(  905) = (   0.4090815   0.0832570   0.0000000), wk =   0.0017361
        k(  906) = (   0.4211133   0.0624428   0.0000000), wk =   0.0017361
        k(  907) = (   0.4331451   0.0416285   0.0000000), wk =   0.0017361
        k(  908) = (   0.4451769   0.0208143   0.0000000), wk =   0.0017361
        k(  909) = (   0.4572087   0.0000000   0.0000000), wk =   0.0017361
        k(  910) = (   0.4692405  -0.0208143   0.0000000), wk =   0.0017361
        k(  911) = (   0.4812723  -0.0416285   0.0000000), wk =   0.0017361
        k(  912) = (   0.4933041  -0.0624428   0.0000000), wk =   0.0017361
        k(  913) = (   0.5053359  -0.0832570   0.0000000), wk =   0.0017361
        k(  914) = (  -0.0601590   0.8950132   0.0000000), wk =   0.0017361
        k(  915) = (  -0.0481272   0.8741989   0.0000000), wk =   0.0017361
        k(  916) = (  -0.0360954   0.8533847   0.0000000), wk =   0.0017361
        k(  917) = (  -0.0240636   0.8325704   0.0000000), wk =   0.0017361
        k(  918) = (  -0.0120318   0.8117561   0.0000000), wk =   0.0017361
        k(  919) = (   0.0000000   0.7909419   0.0000000), wk =   0.0017361
        k(  920) = (   0.0120318   0.7701276   0.0000000), wk =   0.0017361
        k(  921) = (   0.0240636   0.7493134   0.0000000), wk =   0.0017361
        k(  922) = (   0.0360954   0.7284991   0.0000000), wk =   0.0017361
        k(  923) = (   0.0481272   0.7076848   0.0000000), wk =   0.0017361
        k(  924) = (   0.0601590   0.6868706   0.0000000), wk =   0.0017361
        k(  925) = (   0.0721908   0.6660563   0.0000000), wk =   0.0017361
        k(  926) = (   0.0842227   0.6452421   0.0000000), wk =   0.0017361
        k(  927) = (   0.0962545   0.6244278   0.0000000), wk =   0.0017361
        k(  928) = (   0.1082863   0.6036135   0.0000000), wk =   0.0017361
        k(  929) = (   0.1203181   0.5827993   0.0000000), wk =   0.0017361
        k(  930) = (   0.1323499   0.5619850   0.0000000), wk =   0.0017361
        k(  931) = (   0.1443817   0.5411708   0.0000000), wk =   0.0017361
        k(  932) = (   0.1564135   0.5203565   0.0000000), wk =   0.0017361
        k(  933) = (   0.1684453   0.4995422   0.0000000), wk =   0.0017361
        k(  934) = (   0.1804771   0.4787280   0.0000000), wk =   0.0017361
        k(  935) = (   0.1925089   0.4579137   0.0000000), wk =   0.0017361
        k(  936) = (   0.2045407   0.4370995   0.0000000), wk =   0.0017361
        k(  937) = (   0.2165725   0.4162852   0.0000000), wk =   0.0017361
        k(  938) = (   0.2406362   0.4162852   0.0000000), wk =   0.0017361
        k(  939) = (   0.2526680   0.3954709   0.0000000), wk =   0.0017361
        k(  940) = (   0.2646998   0.3746567   0.0000000), wk =   0.0017361
        k(  941) = (   0.2767316   0.3538424   0.0000000), wk =   0.0017361
        k(  942) = (   0.2887634   0.3330282   0.0000000), wk =   0.0017361
        k(  943) = (   0.3007952   0.3122139   0.0000000), wk =   0.0017361
        k(  944) = (   0.3128270   0.2913996   0.0000000), wk =   0.0017361
        k(  945) = (   0.3248588   0.2705854   0.0000000), wk =   0.0017361
        k(  946) = (   0.3368906   0.2497711   0.0000000), wk =   0.0017361
        k(  947) = (   0.3489224   0.2289569   0.0000000), wk =   0.0017361
        k(  948) = (   0.3609542   0.2081426   0.0000000), wk =   0.0017361
        k(  949) = (   0.3729860   0.1873283   0.0000000), wk =   0.0017361
        k(  950) = (   0.3850179   0.1665141   0.0000000), wk =   0.0017361
        k(  951) = (   0.3970497   0.1456998   0.0000000), wk =   0.0017361
        k(  952) = (   0.4090815   0.1248856   0.0000000), wk =   0.0017361
        k(  953) = (   0.4211133   0.1040713   0.0000000), wk =   0.0017361
        k(  954) = (   0.4331451   0.0832570   0.0000000), wk =   0.0017361
        k(  955) = (   0.4451769   0.0624428   0.0000000), wk =   0.0017361
        k(  956) = (   0.4572087   0.0416285   0.0000000), wk =   0.0017361
        k(  957) = (   0.4692405   0.0208143   0.0000000), wk =   0.0017361
        k(  958) = (   0.4812723   0.0000000   0.0000000), wk =   0.0017361
        k(  959) = (   0.4933041  -0.0208143   0.0000000), wk =   0.0017361
        k(  960) = (   0.5053359  -0.0416285   0.0000000), wk =   0.0017361
        k(  961) = (   0.5173677  -0.0624428   0.0000000), wk =   0.0017361
        k(  962) = (  -0.0481272   0.9158274   0.0000000), wk =   0.0017361
[...]

   -21.2538 -14.3394  -9.2658  -7.9140  -7.4256  -6.4191  -5.3806  -5.0242
    -2.8199   0.4138

     occupation numbers 
     1.0000   1.0000   1.0000   1.0000   1.0000   1.0000   1.0000   1.0000
     1.0000   0.0000

          k = 0.4331 0.2081 0.0000 ( 12014 PWs)   bands (ev):

   -21.2533 -14.3361  -9.2869  -7.8864  -7.4677  -6.4225  -5.3221  -5.0091
    -2.8302   0.3510

     occupation numbers 
     1.0000   1.0000   1.0000   1.0000   1.0000   1.0000   1.0000   1.0000
     1.0000   0.0000

          k = 0.4452 0.1873 0.0000 ( 12014 PWs)   bands (ev):

   -21.2523 -14.3299  -9.3257  -7.8352  -7.5449  -6.4262  -5.2258  -4.9689
    -2.8509   0.2438

     occupation numbers 
     1.0000   1.0000   1.0000   1.0000   1.0000   1.0000   1.0000   1.0000
     1.0000   0.0000

          k = 0.4572 0.1665 0.0000 ( 12018 PWs)   bands (ev):

   -21.2510 -14.3210  -9.3766  -7.7677  -7.6442  -6.4274  -5.1354  -4.8768
    -2.8809   0.1139

     occupation numbers 
     1.0000   1.0000   1.0000   1.0000   1.0000   1.0000   1.0000   1.0000
     1.0000   0.0000

          k = 0.4692 0.1457 0.0000 ( 12025 PWs)   bands (ev):

   -21.2493 -14.3098  -9.4341  -7.7652  -7.6798  -6.4248  -5.0785  -4.7212
    -2.9191  -0.0226

     occupation numbers 
     1.0000   1.0000   1.0000   1.0000   1.0000   1.0000   1.0000   1.0000
     1.0000   0.0000

          k = 0.4813 0.1249 0.0000 ( 12033 PWs)   bands (ev):

   -21.2473 -14.2967  -9.4932  -7.8771  -7.5992  -6.4188  -5.0405  -4.5307
    -2.9636  -0.1559

     occupation numbers 
     1.0000   1.0000   1.0000   1.0000   1.0000   1.0000   1.0000   1.0000
     1.0000   0.0000

          k = 0.4933 0.1041 0.0000 ( 12023 PWs)   bands (ev):

   -21.2450 -14.2822  -9.5499  -7.9869  -7.5177  -6.4102  -5.0085  -4.3312
    -3.0119  -0.2798

     occupation numbers 
     1.0000   1.0000   1.0000   1.0000   1.0000   1.0000   1.0000   1.0000
     1.0000   0.0000

          k = 0.5053 0.0833 0.0000 ( 12023 PWs)   bands (ev):

   -21.2426 -14.2667  -9.6015  -8.0872  -7.4429  -6.3999  -4.9781  -4.1397
    -3.0615  -0.3903

     occupation numbers 
     1.0000   1.0000   1.0000   1.0000   1.0000   1.0000   1.0000   1.0000
     1.0000   0.0000

          k = 0.5174 0.0624 0.0000 ( 12021 PWs)   bands (ev):

   -21.2400 -14.2510  -9.6456  -8.1739  -7.3797  -6.3885  -4.9484  -3.9704
    -3.1091  -0.4840

     occupation numbers 
     1.0000   1.0000   1.0000   1.0000   1.0000   1.0000   1.0000   1.0000
     1.0000   0.0000

          k = 0.5294 0.0416 0.0000 ( 12008 PWs)   bands (ev):

   -21.2374 -14.2354  -9.6808  -8.2443  -7.3320  -6.3768  -4.9201  -3.8373
    -3.1515  -0.5579

     occupation numbers 
     1.0000   1.0000   1.0000   1.0000   1.0000   1.0000   1.0000   1.0000
     1.0000   0.0000

          k = 0.5414 0.0208 0.0000 ( 12016 PWs)   bands (ev):

   -21.2347 -14.2206  -9.7059  -8.2964  -7.3028  -6.3651  -4.8941  -3.7529
    -3.1853  -0.6091

     occupation numbers 
     1.0000   1.0000   1.0000   1.0000   1.0000   1.0000   1.0000   1.0000
     1.0000   0.0000

          k = 0.5535 0.0000 0.0000 ( 12026 PWs)   bands (ev):

   -21.2321 -14.2071  -9.7202  -8.3290  -7.2943  -6.3539  -4.8719  -3.7268
    -3.2076  -0.6354

     occupation numbers 
     1.0000   1.0000   1.0000   1.0000   1.0000   1.0000   1.0000   1.0000
     1.0000   0.0000

          k =-0.0120 0.9783 0.0000 ( 12016 PWs)   bands (ev):

   -21.2297 -14.1951  -9.7231  -8.3411  -7.3071  -6.3435  -4.8550  -3.7626
    -3.2160  -0.6365

     occupation numbers 
     1.0000   1.0000   1.0000   1.0000   1.0000   1.0000   1.0000   1.0000
     1.0000   0.0000

          k = 0.0000 0.9575 0.0000 ( 12018 PWs)   bands (ev):

   -21.2273 -14.1850  -9.7147  -8.3326  -7.3409  -6.3344  -4.8448  -3.8566
    -3.2096  -0.6141

     occupation numbers 
     1.0000   1.0000   1.0000   1.0000   1.0000   1.0000   1.0000   1.0000
     1.0000   0.0000

          k = 0.0120 0.9366 0.0000 ( 12014 PWs)   bands (ev):

   -21.2251 -14.1769  -9.6950  -8.3035  -7.3941  -6.3268  -4.8425  -3.9991
    -3.1885  -0.5718

     occupation numbers 
     1.0000   1.0000   1.0000   1.0000   1.0000   1.0000   1.0000   1.0000
     1.0000   0.0000

          k = 0.0241 0.9158 0.0000 ( 12013 PWs)   bands (ev):

   -21.2232 -14.1707  -9.6646  -8.2545  -7.4643  -6.3208  -4.8496  -4.1765
    -3.1542  -0.5134

     occupation numbers 
     1.0000   1.0000   1.0000   1.0000   1.0000   1.0000   1.0000   1.0000
     1.0000   0.0000

          k = 0.0361 0.8950 0.0000 ( 12014 PWs)   bands (ev):

   -21.2214 -14.1664  -9.6243  -8.1870  -7.5481  -6.3165  -4.8704  -4.3714
    -3.1093  -0.4425

     occupation numbers 
     1.0000   1.0000   1.0000   1.0000   1.0000   1.0000   1.0000   1.0000
     1.0000   0.0000

          k = 0.0481 0.8742 0.0000 ( 12005 PWs)   bands (ev):

   -21.2199 -14.1637  -9.5754  -8.1030  -7.6415  -6.3135  -4.9188  -4.5573
    -3.0572  -0.3623

     occupation numbers 
     1.0000   1.0000   1.0000   1.0000   1.0000   1.0000   1.0000   1.0000
     1.0000   0.0000

          k = 0.0602 0.8534 0.0000 ( 12003 PWs)   bands (ev):

   -21.2187 -14.1624  -9.5199  -8.0058  -7.7400  -6.3114  -5.0264  -4.6905
    -3.0021  -0.2753

     occupation numbers 
     1.0000   1.0000   1.0000   1.0000   1.0000   1.0000   1.0000   1.0000
     1.0000   0.0000

          k = 0.0722 0.8326 0.0000 ( 11994 PWs)   bands (ev):

   -21.2177 -14.1620  -9.4606  -7.9035  -7.8348  -6.3096  -5.1966  -4.7563
    -2.9480  -0.1849

     occupation numbers 
     1.0000   1.0000   1.0000   1.0000   1.0000   1.0000   1.0000   1.0000
     1.0000   0.0000

          k = 0.0842 0.8118 0.0000 ( 11999 PWs)   bands (ev):

   -21.2169 -14.1622  -9.4012  -7.9373  -7.7858  -6.3072  -5.3848  -4.7878
    -2.8992  -0.0956

     occupation numbers 
     1.0000   1.0000   1.0000   1.0000   1.0000   1.0000   1.0000   1.0000
     1.0000   0.0000

          k = 0.0963 0.7909 0.0000 ( 11998 PWs)   bands (ev):

   -21.2163 -14.1628  -9.3470  -8.0173  -7.6852  -6.3036  -5.5571  -4.8055
    -2.8592  -0.0141

     occupation numbers 
     1.0000   1.0000   1.0000   1.0000   1.0000   1.0000   1.0000   1.0000
     1.0000   0.0000

          k = 0.1083 0.7701 0.0000 ( 11981 PWs)   bands (ev):

   -21.2160 -14.1635  -9.3047  -8.0782  -7.6040  -6.2988  -5.6908  -4.8158
    -2.8309   0.0500

     occupation numbers 
     1.0000   1.0000   1.0000   1.0000   1.0000   1.0000   1.0000   1.0000
     1.0000   0.0000

          k = 0.1203 0.7493 0.0000 ( 11994 PWs)   bands (ev):

   -21.2159 -14.1641  -9.2812  -8.1112  -7.5583  -6.2950  -5.7648  -4.8207
    -2.8165   0.0860

     occupation numbers 
     1.0000   1.0000   1.0000   1.0000   1.0000   1.0000   1.0000   1.0000
     1.0000   0.0000

          k = 0.1323 0.7285 0.0000 ( 11994 PWs)   bands (ev):

   -21.2160 -14.1644  -9.2811  -8.1110  -7.5593  -6.2952  -5.7631  -4.8210
    -2.8171   0.0861

     occupation numbers 
     1.0000   1.0000   1.0000   1.0000   1.0000   1.0000   1.0000   1.0000
     1.0000   0.0000

          k = 0.1444 0.7077 0.0000 ( 11983 PWs)   bands (ev):

   -21.2164 -14.1645  -9.3046  -8.0777  -7.6066  -6.2996  -5.6863  -4.8165
    -2.8324   0.0504

     occupation numbers 
     1.0000   1.0000   1.0000   1.0000   1.0000   1.0000   1.0000   1.0000
     1.0000   0.0000

          k = 0.1564 0.6869 0.0000 ( 12002 PWs)   bands (ev):

   -21.2169 -14.1645  -9.3469  -8.0167  -7.6888  -6.3046  -5.5504  -4.8067
    -2.8616  -0.0134

     occupation numbers 
     1.0000   1.0000   1.0000   1.0000   1.0000   1.0000   1.0000   1.0000
     1.0000   0.0000

          k = 0.1684 0.6661 0.0000 ( 11998 PWs)   bands (ev):

   -21.2177 -14.1646  -9.4010  -7.9364  -7.7900  -6.3086  -5.3766  -4.7892
    -2.9024  -0.0945

     occupation numbers 
     1.0000   1.0000   1.0000   1.0000   1.0000   1.0000   1.0000   1.0000
     1.0000   0.0000

          k = 0.1805 0.6452 0.0000 ( 11992 PWs)   bands (ev):

   -21.2187 -14.1650  -9.4603  -7.9074  -7.8343  -6.3113  -5.1882  -4.7570
    -2.9518  -0.1834

     occupation numbers 
     1.0000   1.0000   1.0000   1.0000   1.0000   1.0000   1.0000   1.0000
     1.0000   0.0000

          k = 0.1925 0.6244 0.0000 ( 12007 PWs)   bands (ev):

   -21.2199 -14.1659  -9.5196  -8.0103  -7.7388  -6.3135  -5.0204  -4.6881
    -3.0063  -0.2734

     occupation numbers 
     1.0000   1.0000   1.0000   1.0000   1.0000   1.0000   1.0000   1.0000
     1.0000   0.0000

          k = 0.2045 0.6036 0.0000 ( 12012 PWs)   bands (ev):

   -21.2213 -14.1678  -9.5750  -8.1074  -7.6401  -6.3159  -4.9177  -4.5494
    -3.0618  -0.3599

     occupation numbers 
     1.0000   1.0000   1.0000   1.0000   1.0000   1.0000   1.0000   1.0000
     1.0000   0.0000

          k = 0.2166 0.5828 0.0000 ( 12010 PWs)   bands (ev):

   -21.2229 -14.1709  -9.6237  -8.1913  -7.5465  -6.3191  -4.8724  -4.3601
    -3.1141  -0.4399

     occupation numbers 
     1.0000   1.0000   1.0000   1.0000   1.0000   1.0000   1.0000   1.0000
     1.0000   0.0000

          k = 0.2286 0.5620 0.0000 ( 12017 PWs)   bands (ev):

   -21.2248 -14.1756  -9.6640  -8.2587  -7.4626  -6.3236  -4.8530  -4.1633
    -3.1591  -0.5105

     occupation numbers 
     1.0000   1.0000   1.0000   1.0000   1.0000   1.0000   1.0000   1.0000
     1.0000   0.0000

          k = 0.2406 0.5412 0.0000 ( 12022 PWs)   bands (ev):

   -21.2268 -14.1820  -9.6944  -8.3076  -7.3924  -6.3297  -4.8466  -3.9847
    -3.1935  -0.5687

     occupation numbers 
     1.0000   1.0000   1.0000   1.0000   1.0000   1.0000   1.0000   1.0000
     1.0000   0.0000

          k = 0.2527 0.5204 0.0000 ( 12020 PWs)   bands (ev):

   -21.2291 -14.1903  -9.7141  -8.3366  -7.3390  -6.3374  -4.8493  -3.8414
    -3.2146  -0.6110

     occupation numbers 
     1.0000   1.0000   1.0000   1.0000   1.0000   1.0000   1.0000   1.0000
     1.0000   0.0000

          k = 0.2647 0.4995 0.0000 ( 12025 PWs)   bands (ev):

   -21.2314 -14.2004  -9.7226  -8.3452  -7.3052  -6.3466  -4.8597  -3.7469
    -3.2211  -0.6334

     occupation numbers 
     1.0000   1.0000   1.0000   1.0000   1.0000   1.0000   1.0000   1.0000
     1.0000   0.0000

          k =-0.2888-0.4995 0.0000 ( 12006 PWs)   bands (ev):

   -21.2314 -14.1995  -9.7283  -8.3556  -7.2943  -6.3461  -4.8564  -3.7158
    -3.2287  -0.6458

     occupation numbers 
     1.0000   1.0000   1.0000   1.0000   1.0000   1.0000   1.0000   1.0000
     1.0000   0.0000

          k =-0.2767-0.5204 0.0000 ( 12020 PWs)   bands (ev):

   -21.2314 -14.2004  -9.7226  -8.3453  -7.3051  -6.3466  -4.8596  -3.7469
    -3.2211  -0.6334

     occupation numbers 
     1.0000   1.0000   1.0000   1.0000   1.0000   1.0000   1.0000   1.0000
     1.0000   0.0000

          k =-0.2647-0.5412 0.0000 ( 12028 PWs)   bands (ev):

   -21.2316 -14.2029  -9.7057  -8.3145  -7.3367  -6.3481  -4.8689  -3.8365
    -3.1988  -0.5973

     occupation numbers 
     1.0000   1.0000   1.0000   1.0000   1.0000   1.0000   1.0000   1.0000
     1.0000   0.0000

          k =-0.2527-0.5620 0.0000 ( 12011 PWs)   bands (ev):

   -21.2318 -14.2070  -9.6780  -8.2640  -7.3874  -6.3505  -4.8839  -3.9752
    -3.1640  -0.5403

     occupation numbers 
     1.0000   1.0000   1.0000   1.0000   1.0000   1.0000   1.0000   1.0000
     1.0000   0.0000

          k =-0.2406-0.5828 0.0000 ( 12020 PWs)   bands (ev):

   -21.2321 -14.2121  -9.6403  -8.1951  -7.4545  -6.3538  -4.9043  -4.1500
    -3.1193  -0.4656

     occupation numbers 
     1.0000   1.0000   1.0000   1.0000   1.0000   1.0000   1.0000   1.0000
     1.0000   0.0000

          k =-0.2286-0.6036 0.0000 ( 12019 PWs)   bands (ev):

   -21.2324 -14.2181  -9.5939  -8.1098  -7.5342  -6.3575  -4.9308  -4.3459
    -3.0684  -0.3764

     occupation numbers 
     1.0000   1.0000   1.0000   1.0000   1.0000   1.0000   1.0000   1.0000
     1.0000   0.0000

          k =-0.2166-0.6244 0.0000 ( 12029 PWs)   bands (ev):

   -21.2327 -14.2245  -9.5405  -8.0110  -7.6223  -6.3611  -4.9683  -4.5449
    -3.0147  -0.2754

     occupation numbers 
     1.0000   1.0000   1.0000   1.0000   1.0000   1.0000   1.0000   1.0000
     1.0000   0.0000

          k =-0.2045-0.6452 0.0000 ( 12005 PWs)   bands (ev):

   -21.2331 -14.2308  -9.4826  -7.9031  -7.7134  -6.3640  -5.0328  -4.7187
    -2.9621  -0.1660

     occupation numbers 
     1.0000   1.0000   1.0000   1.0000   1.0000   1.0000   1.0000   1.0000
     1.0000   0.0000

          k =-0.1925-0.6661 0.0000 ( 12014 PWs)   bands (ev):

   -21.2334 -14.2366  -9.4234  -7.8180  -7.7760  -6.3653  -5.1499  -4.8297
    -2.9139  -0.0525

     occupation numbers 
     1.0000   1.0000   1.0000   1.0000   1.0000   1.0000   1.0000   1.0000
     1.0000   0.0000

          k =-0.1805-0.6869 0.0000 ( 12014 PWs)   bands (ev):

   -21.2336 -14.2415  -9.3674  -7.8898  -7.6776  -6.3644  -5.3025  -4.8824
    -2.8730   0.0582

     occupation numbers 
     1.0000   1.0000   1.0000   1.0000   1.0000   1.0000   1.0000   1.0000
     1.0000   0.0000

          k =-0.1684-0.7077 0.0000 ( 12002 PWs)   bands (ev):

   -21.2337 -14.2451  -9.3202  -7.9561  -7.5846  -6.3611  -5.4449  -4.9078
    -2.8419   0.1557

     occupation numbers 
     1.0000   1.0000   1.0000   1.0000   1.0000   1.0000   1.0000   1.0000
     1.0000   0.0000

          k =-0.1564-0.7285 0.0000 ( 12002 PWs)   bands (ev):

   -21.2338 -14.2473  -9.2883  -8.0003  -7.5197  -6.3569  -5.5455  -4.9200
    -2.8223   0.2249

     occupation numbers 
     1.0000   1.0000   1.0000   1.0000   1.0000   1.0000   1.0000   1.0000
     1.0000   0.0000

          k =-0.1444-0.7493 0.0000 ( 12006 PWs)   bands (ev):

   -21.2337 -14.2478  -9.2769  -8.0160  -7.4956  -6.3547  -5.5831  -4.9236
    -2.8153   0.2504

     occupation numbers 
     1.0000   1.0000   1.0000   1.0000   1.0000   1.0000   1.0000   1.0000
     1.0000   0.0000

          k =-0.1323-0.7701 0.0000 ( 12003 PWs)   bands (ev):

   -21.2336 -14.2466  -9.2882  -8.0007  -7.5178  -6.3564  -5.5487  -4.9196
    -2.8214   0.2250

     occupation numbers 
     1.0000   1.0000   1.0000   1.0000   1.0000   1.0000   1.0000   1.0000
     1.0000   0.0000

          k =-0.1203-0.7909 0.0000 ( 12004 PWs)   bands (ev):

   -21.2333 -14.2438  -9.3202  -7.9568  -7.5813  -6.3602  -5.4506  -4.9070
    -2.8400   0.1557

     occupation numbers 
     1.0000   1.0000   1.0000   1.0000   1.0000   1.0000   1.0000   1.0000
     1.0000   0.0000

          k =-0.1083-0.8118 0.0000 ( 12014 PWs)   bands (ev):

   -21.2329 -14.2395  -9.3674  -7.8908  -7.6734  -6.3631  -5.3098  -4.8818
    -2.8703   0.0580

     occupation numbers 
     1.0000   1.0000   1.0000   1.0000   1.0000   1.0000   1.0000   1.0000
     1.0000   0.0000

          k =-0.0963-0.8326 0.0000 ( 12014 PWs)   bands (ev):

   -21.2325 -14.2340  -9.4235  -7.8179  -7.7726  -6.3637  -5.1567  -4.8308
    -2.9105  -0.0532

     occupation numbers 
     1.0000   1.0000   1.0000   1.0000   1.0000   1.0000   1.0000   1.0000
     1.0000   0.0000

          k =-0.0842-0.8534 0.0000 ( 12015 PWs)   bands (ev):

   -21.2320 -14.2276  -9.4827  -7.8984  -7.7147  -6.3621  -5.0359  -4.7243
    -2.9581  -0.1672

     occupation numbers 
     1.0000   1.0000   1.0000   1.0000   1.0000   1.0000   1.0000   1.0000
     1.0000   0.0000

          k =-0.0722-0.8742 0.0000 ( 12017 PWs)   bands (ev):

   -21.2315 -14.2208  -9.5408  -8.0062  -7.6238  -6.3589  -4.9679  -4.5547
    -3.0103  -0.2771

     occupation numbers 
     1.0000   1.0000   1.0000   1.0000   1.0000   1.0000   1.0000   1.0000
     1.0000   0.0000

          k =-0.0602-0.8950 0.0000 ( 12013 PWs)   bands (ev):

   -21.2310 -14.2140  -9.5943  -8.1051  -7.5359  -6.3550  -4.9286  -4.3579
    -3.0636  -0.3785

     occupation numbers 
     1.0000   1.0000   1.0000   1.0000   1.0000   1.0000   1.0000   1.0000
     1.0000   0.0000

          k =-0.0481-0.9158 0.0000 ( 12021 PWs)   bands (ev):

   -21.2305 -14.2076  -9.6407  -8.1906  -7.4563  -6.3511  -4.9011  -4.1635
    -3.1144  -0.4681

     occupation numbers 
     1.0000   1.0000   1.0000   1.0000   1.0000   1.0000   1.0000   1.0000
     1.0000   0.0000

          k =-0.0361-0.9366 0.0000 ( 12011 PWs)   bands (ev):

   -21.2301 -14.2020  -9.6784  -8.2597  -7.3893  -6.3477  -4.8801  -3.9897
    -3.1590  -0.5431

     occupation numbers 
     1.0000   1.0000   1.0000   1.0000   1.0000   1.0000   1.0000   1.0000
     1.0000   0.0000

          k =-0.0241-0.9575 0.0000 ( 12022 PWs)   bands (ev):

   -21.2298 -14.1978  -9.7062  -8.3103  -7.3387  -6.3451  -4.8646  -3.8518
    -3.1938  -0.6003

     occupation numbers 
     1.0000   1.0000   1.0000   1.0000   1.0000   1.0000   1.0000   1.0000
     1.0000   0.0000

          k =-0.0120-0.9783 0.0000 ( 12016 PWs)   bands (ev):

   -21.2297 -14.1951  -9.7231  -8.3411  -7.3071  -6.3435  -4.8550  -3.7626
    -3.2160  -0.6365

     occupation numbers 
     1.0000   1.0000   1.0000   1.0000   1.0000   1.0000   1.0000   1.0000
     1.0000   0.0000

          k =-0.5775 0.0000 0.0000 ( 11998 PWs)   bands (ev):

   -21.2296 -14.1942  -9.7288  -8.3515  -7.2963  -6.3430  -4.8518  -3.7317
    -3.2236  -0.6489

     occupation numbers 
     1.0000   1.0000   1.0000   1.0000   1.0000   1.0000   1.0000   1.0000
     1.0000   0.0000

     the Fermi energy is    -1.1692 ev
     (compare with:    -2.2334 eV, computed in scf)

     Writing all to output data dir ./work/Al2SO.save/
 
     init_run     :      3.72s CPU      3.78s WALL (       1 calls)
     electrons    :    293.33s CPU    352.33s WALL (       1 calls)

     Called by init_run:
     wfcinit      :      0.00s CPU      0.00s WALL (       1 calls)
     wfcinit:atom :      0.19s CPU      0.21s WALL (    1154 calls)
     wfcinit:wfcr :      8.89s CPU     11.03s WALL (    1154 calls)
     potinit      :      3.42s CPU      3.44s WALL (       1 calls)
     hinit0       :      0.14s CPU      0.15s WALL (       1 calls)

     Called by electrons:
     c_bands      :    293.31s CPU    352.31s WALL (       1 calls)
     v_of_rho     :      3.37s CPU      3.40s WALL (       1 calls)
     v_h          :      0.00s CPU      0.00s WALL (       1 calls)
     v_xc         :      3.37s CPU      3.40s WALL (       1 calls)
     newd         :      0.06s CPU      0.07s WALL (       1 calls)
     PAW_pot      :      0.05s CPU      0.05s WALL (       1 calls)
     vdW_kernel   :      3.31s CPU      3.33s WALL (       1 calls)

     Called by c_bands:
     init_us_2    :      0.33s CPU      0.38s WALL (    1154 calls)
     init_us_2:cp :      0.33s CPU      0.38s WALL (    1154 calls)
     cegterg      :    280.58s CPU    337.19s WALL (    3807 calls)

     Called by sum_band:

     Called by *egterg:
     cdiaghg      :      6.18s CPU      7.26s WALL (   65858 calls)
     cegterg:over :     16.98s CPU     20.15s WALL (   64704 calls)
     cegterg:upda :      3.90s CPU      4.50s WALL (   64704 calls)
     cegterg:last :     13.59s CPU     15.65s WALL (   49480 calls)
     h_psi        :    232.41s CPU    281.05s WALL (   69665 calls)
     s_psi        :     11.11s CPU     13.42s WALL (   69665 calls)
     g_psi        :      1.28s CPU      1.48s WALL (   64704 calls)

     Called by h_psi:
     h_psi:calbec :     12.26s CPU     15.46s WALL (   69665 calls)
     vloc_psi     :    204.69s CPU    246.52s WALL (   69665 calls)
     add_vuspsi   :     14.57s CPU     18.05s WALL (   69665 calls)

     General routines
     calbec       :     12.19s CPU     15.38s WALL (   69665 calls)
     fft          :      0.02s CPU      0.03s WALL (      62 calls)
     fftw         :    193.03s CPU    232.56s WALL ( 1046294 calls)
     davcio       :      0.15s CPU      0.23s WALL (    2308 calls)
 
     Parallel routines

     PAW routines
     PAW_pot      :      0.05s CPU      0.05s WALL (       1 calls)
 
     PWSCF        :   4m57.98s CPU   5m58.99s WALL

 
   This run was terminated on:   7:53:48  12Jun2023            

=------------------------------------------------------------------------------=
   JOB DONE.
=------------------------------------------------------------------------------=
