
     Program BANDS v.7.0 starts on 22Jun2023 at 12: 4:41 

     This program is part of the open-source Quantum ESPRESSO suite
     for quantum simulation of materials; please cite
         "P. Giannozzi et al., J. Phys.:Condens. Matter 21 395502 (2009);
         "P. Giannozzi et al., J. Phys.:Condens. Matter 29 465901 (2017);
         "P. Giannozzi et al., J. Chem. Phys. 152 154105 (2020);
          URL http://www.quantum-espresso.org", 
     in publications or presentations arising from this work. More details at
     http://www.quantum-espresso.org/quote

     Parallel version (MPI), running on    10 processors

     MPI processes distributed on     1 nodes
     R & G space division:  proc/nbgrp/npool/nimage =      10
     23174 MiB available memory on the printing compute node when the environment starts
 

     Reading xml data from directory:

     ./work/Al2S2.save/
     Message from routine volume:
     axis vectors are left-handed
     file Al.pbe-n-kjpaw_psl.1.0.0.UPF: wavefunction(s)  3S 3P renormalized
     file S.pbe-n-kjpaw_psl.1.0.0.UPF: wavefunction(s)  3S 3P renormalized

     IMPORTANT: XC functional enforced from input :
     Exchange-correlation= VDW-DF2-B86R
                           (   1   4  26   0   2   0   0)
     Any further DFT definition will be discarded
     Please, verify this is what you really want

 
     Parallelization info
     --------------------
     sticks:   dense  smooth     PW     G-vecs:    dense   smooth      PW
     Min          74      74     21                11662    11662    1827
     Max          75      75     22                11703    11703    1844
     Sum         745     745    211               116821   116821   18287
 
     Using Slab Decomposition
 

     negative rho (up, down):  1.690E-04 0.000E+00


     %%%%%%%%%%%%%%%%%%%%%%%%%%%%%%%%%%%%%%%%%%%%%%%%%%%%%%%%%%%%%%%%%%%%%%%%
     %                                                                      %
     % You are using vdW-DF, which was implemented by the Thonhauser group. %
     % Please cite the following two papers that made this development      %
     % possible and the two reviews that describe the various versions:     %
     %                                                                      %
     %   T. Thonhauser et al., PRL 115, 136402 (2015).                      %
     %   T. Thonhauser et al., PRB 76, 125112 (2007).                       %
     %   K. Berland et al., Rep. Prog. Phys. 78, 066501 (2015).             %
     %   D.C. Langreth et al., J. Phys.: Condens. Matter 21, 084203 (2009). %
     %                                                                      %
     %                                                                      %
     % If you are calculating the stress with vdW-DF, please also cite:     %
     %                                                                      %
     %   R. Sabatini et al., J. Phys.: Condens. Matter 24, 424209 (2012).   %
     %                                                                      %
     %%%%%%%%%%%%%%%%%%%%%%%%%%%%%%%%%%%%%%%%%%%%%%%%%%%%%%%%%%%%%%%%%%%%%%%%


     Reading collected, re-writing distributed wavefunctions
     high-symmetry point:  0.0000 0.0000 0.0000   x coordinate   0.0000
     high-symmetry point:  0.5777 0.3320 0.0000   x coordinate   0.6663
     high-symmetry point:  0.5777 0.0000 0.0000   x coordinate   0.9983
     high-symmetry point:  0.0000 0.0000 0.0000   x coordinate   1.5759

     Plottable bands (eV) written to file Al2S2.bands.gnu
     Bands written to file Al2S2.bands

 **************************************************************************

                    xk=(   0.00000,   0.00000,   0.00000  )

     point group C_s (m)    
     there are  2 classes
     the character table:

       E     s    
A'     1.00  1.00
A''    1.00 -1.00

     the symmetry operations in each class and the name of the first element:

     E        1
                                                                 
     s        2
                                                                 

     Band symmetry, C_s (m)     point group:

     e(  1 -  1) =    -16.28086  eV     1   --> A'             
     e(  2 -  2) =    -16.16919  eV     1   --> A'             
     e(  3 -  3) =     -8.35247  eV     1   --> A'             
     e(  4 -  4) =     -6.27343  eV     1   --> A'             
     e(  5 -  5) =     -4.25467  eV     1   --> A''            
     e(  6 -  6) =     -4.23996  eV     1   --> A'             
     e(  7 -  7) =     -4.20394  eV     1   --> A''            
     e(  8 -  8) =     -4.18956  eV     1   --> A'             
     e(  9 -  9) =     -3.35909  eV     1   --> A'             
     e( 10 - 10) =      0.41026  eV     1   --> A'             
     e( 11 - 11) =      1.22899  eV     1   --> A'             
     e( 12 - 12) =      2.38201  eV     1   --> A'             
     e( 13 - 13) =      2.47144  eV     1   --> A'             
     e( 14 - 14) =      2.59507  eV     1   --> A''            
     e( 15 - 15) =      2.62019  eV     1   --> A'             
     e( 16 - 16) =      3.28654  eV     1   --> A'             
     e( 17 - 17) =      3.38710  eV     1   --> A''            
     e( 18 - 18) =      3.41347  eV     1   --> A'             
     e( 19 - 19) =      3.61142  eV     1   --> A'             
     e( 20 - 20) =      4.25105  eV     1   --> A'             
     e( 21 - 21) =      4.74425  eV     1   --> A'             
     e( 22 - 22) =      5.94247  eV     1   --> A'             
     e( 23 - 23) =      6.15625  eV     1   --> A''            
     e( 24 - 24) =      6.18723  eV     1   --> A'             
     e( 25 - 25) =      6.53414  eV     1   --> A'             
     e( 26 - 26) =      7.17858  eV     1   --> A'             
     e( 27 - 27) =      7.96985  eV     1   --> A''            
     e( 28 - 28) =      7.99449  eV     1   --> A'             
     e( 29 - 29) =      8.22717  eV     1   --> A''            
     e( 30 - 30) =      8.24706  eV     1   --> A'             

 **************************************************************************

 **************************************************************************

                    xk=(   0.01926,   0.01107,   0.00000  )

     point group C_1 (1)    
     there are  1 classes
     the character table:

       E    
A      1.00

     the symmetry operations in each class and the name of the first element:

     E        1
                                                                 

     Band symmetry, C_1 (1)     point group:

     e(  1 -  1) =    -16.27748  eV     1   --> A              
     e(  2 -  2) =    -16.16594  eV     1   --> A              
     e(  3 -  3) =     -8.34888  eV     1   --> A              
     e(  4 -  4) =     -6.27071  eV     1   --> A              
     e(  5 -  5) =     -4.27383  eV     1   --> A              
     e(  6 -  6) =     -4.25382  eV     1   --> A              
     e(  7 -  7) =     -4.22091  eV     1   --> A              
     e(  8 -  8) =     -4.20270  eV     1   --> A              
     e(  9 -  9) =     -3.35207  eV     1   --> A              
     e( 10 - 10) =      0.43253  eV     1   --> A              
     e( 11 - 11) =      1.25172  eV     1   --> A              
     e( 12 - 12) =      2.38852  eV     1   --> A              
     e( 13 - 13) =      2.46202  eV     1   --> A              
     e( 14 - 14) =      2.59721  eV     1   --> A              
     e( 15 - 15) =      2.61843  eV     1   --> A              
     e( 16 - 16) =      3.29255  eV     1   --> A              
     e( 17 - 17) =      3.38591  eV     1   --> A              
     e( 18 - 18) =      3.41269  eV     1   --> A              
     e( 19 - 19) =      3.61987  eV     1   --> A              
     e( 20 - 20) =      4.25073  eV     1   --> A              
     e( 21 - 21) =      4.74852  eV     1   --> A              
     e( 22 - 22) =      5.94073  eV     1   --> A              
     e( 23 - 23) =      6.12519  eV     1   --> A              
     e( 24 - 24) =      6.15788  eV     1   --> A              
     e( 25 - 25) =      6.54797  eV     1   --> A              
     e( 26 - 26) =      7.18276  eV     1   --> A              
     e( 27 - 27) =      7.94165  eV     1   --> A              
     e( 28 - 28) =      7.97100  eV     1   --> A              
     e( 29 - 29) =      8.24908  eV     1   --> A              
     e( 30 - 30) =      8.26644  eV     1   --> A              

 **************************************************************************

 **************************************************************************

                    xk=(   0.03851,   0.02213,   0.00000  )

     Band symmetry, C_1 (1)     point group:

     e(  1 -  1) =    -16.26737  eV     1   --> A              
     e(  2 -  2) =    -16.15620  eV     1   --> A              
     e(  3 -  3) =     -8.33816  eV     1   --> A              
     e(  4 -  4) =     -6.26269  eV     1   --> A              
     e(  5 -  5) =     -4.35194  eV     1   --> A              
     e(  6 -  6) =     -4.29276  eV     1   --> A              
     e(  7 -  7) =     -4.27087  eV     1   --> A              
     e(  8 -  8) =     -4.21908  eV     1   --> A              
     e(  9 -  9) =     -3.33332  eV     1   --> A              
     e( 10 - 10) =      0.49691  eV     1   --> A              
     e( 11 - 11) =      1.31744  eV     1   --> A              
     e( 12 - 12) =      2.40761  eV     1   --> A              
     e( 13 - 13) =      2.42259  eV     1   --> A              
     e( 14 - 14) =      2.59197  eV     1   --> A              
     e( 15 - 15) =      2.63864  eV     1   --> A              
     e( 16 - 16) =      3.31024  eV     1   --> A              
     e( 17 - 17) =      3.35028  eV     1   --> A              
     e( 18 - 18) =      3.44592  eV     1   --> A              
     e( 19 - 19) =      3.64298  eV     1   --> A              
     e( 20 - 20) =      4.24979  eV     1   --> A              
     e( 21 - 21) =      4.76027  eV     1   --> A              
     e( 22 - 22) =      5.93566  eV     1   --> A              
     e( 23 - 23) =      6.00687  eV     1   --> A              
     e( 24 - 24) =      6.11260  eV     1   --> A              
     e( 25 - 25) =      6.58525  eV     1   --> A              
     e( 26 - 26) =      7.18785  eV     1   --> A              
     e( 27 - 27) =      7.85312  eV     1   --> A              
     e( 28 - 28) =      7.94006  eV     1   --> A              
     e( 29 - 29) =      8.30728  eV     1   --> A              
     e( 30 - 30) =      8.33003  eV     1   --> A              

 **************************************************************************

 **************************************************************************

                    xk=(   0.05777,   0.03320,   0.00000  )

     Band symmetry, C_1 (1)     point group:

     e(  1 -  1) =    -16.25057  eV     1   --> A              
     e(  2 -  2) =    -16.14004  eV     1   --> A              
     e(  3 -  3) =     -8.32051  eV     1   --> A              
     e(  4 -  4) =     -6.24971  eV     1   --> A              
     e(  5 -  5) =     -4.47439  eV     1   --> A              
     e(  6 -  6) =     -4.40865  eV     1   --> A              
     e(  7 -  7) =     -4.29685  eV     1   --> A              
     e(  8 -  8) =     -4.24356  eV     1   --> A              
     e(  9 -  9) =     -3.30770  eV     1   --> A              
     e( 10 - 10) =      0.59683  eV     1   --> A              
     e( 11 - 11) =      1.41902  eV     1   --> A              
     e( 12 - 12) =      2.34030  eV     1   --> A              
     e( 13 - 13) =      2.43796  eV     1   --> A              
     e( 14 - 14) =      2.59687  eV     1   --> A              
     e( 15 - 15) =      2.68301  eV     1   --> A              
     e( 16 - 16) =      3.29293  eV     1   --> A              
     e( 17 - 17) =      3.33892  eV     1   --> A              
     e( 18 - 18) =      3.50412  eV     1   --> A              
     e( 19 - 19) =      3.68041  eV     1   --> A              
     e( 20 - 20) =      4.24859  eV     1   --> A              
     e( 21 - 21) =      4.77631  eV     1   --> A              
     e( 22 - 22) =      5.84247  eV     1   --> A              
     e( 23 - 23) =      5.92789  eV     1   --> A              
     e( 24 - 24) =      6.04469  eV     1   --> A              
     e( 25 - 25) =      6.63795  eV     1   --> A              
     e( 26 - 26) =      7.18677  eV     1   --> A              
     e( 27 - 27) =      7.75363  eV     1   --> A              
     e( 28 - 28) =      7.89217  eV     1   --> A              
     e( 29 - 29) =      8.39512  eV     1   --> A              
     e( 30 - 30) =      8.43570  eV     1   --> A              

 **************************************************************************

 **************************************************************************

                    xk=(   0.07703,   0.04426,   0.00000  )

     Band symmetry, C_1 (1)     point group:

     e(  1 -  1) =    -16.22721  eV     1   --> A              
     e(  2 -  2) =    -16.11756  eV     1   --> A              
     e(  3 -  3) =     -8.29623  eV     1   --> A              
     e(  4 -  4) =     -6.23247  eV     1   --> A              
     e(  5 -  5) =     -4.62960  eV     1   --> A              
     e(  6 -  6) =     -4.55892  eV     1   --> A              
     e(  7 -  7) =     -4.33318  eV     1   --> A              
     e(  8 -  8) =     -4.27770  eV     1   --> A              
     e(  9 -  9) =     -3.27939  eV     1   --> A              
     e( 10 - 10) =      0.72334  eV     1   --> A              
     e( 11 - 11) =      1.54558  eV     1   --> A              
     e( 12 - 12) =      2.22336  eV     1   --> A              
     e( 13 - 13) =      2.47711  eV     1   --> A              
     e( 14 - 14) =      2.61613  eV     1   --> A              
     e( 15 - 15) =      2.74765  eV     1   --> A              
     e( 16 - 16) =      3.22499  eV     1   --> A              
     e( 17 - 17) =      3.37805  eV     1   --> A              
     e( 18 - 18) =      3.56961  eV     1   --> A              
     e( 19 - 19) =      3.74270  eV     1   --> A              
     e( 20 - 20) =      4.24877  eV     1   --> A              
     e( 21 - 21) =      4.79095  eV     1   --> A              
     e( 22 - 22) =      5.66611  eV     1   --> A              
     e( 23 - 23) =      5.91880  eV     1   --> A              
     e( 24 - 24) =      5.95456  eV     1   --> A              
     e( 25 - 25) =      6.69658  eV     1   --> A              
     e( 26 - 26) =      7.18585  eV     1   --> A              
     e( 27 - 27) =      7.66380  eV     1   --> A              
     e( 28 - 28) =      7.82451  eV     1   --> A              
     e( 29 - 29) =      8.49916  eV     1   --> A              
     e( 30 - 30) =      8.58165  eV     1   --> A              

 **************************************************************************

 **************************************************************************

                    xk=(   0.09628,   0.05533,   0.00000  )

     Band symmetry, C_1 (1)     point group:

     e(  1 -  1) =    -16.19742  eV     1   --> A              
     e(  2 -  2) =    -16.08892  eV     1   --> A              
     e(  3 -  3) =     -8.26582  eV     1   --> A              
     e(  4 -  4) =     -6.21219  eV     1   --> A              
     e(  5 -  5) =     -4.80811  eV     1   --> A              
     e(  6 -  6) =     -4.73408  eV     1   --> A              
     e(  7 -  7) =     -4.38025  eV     1   --> A              
     e(  8 -  8) =     -4.32181  eV     1   --> A              
     e(  9 -  9) =     -3.25084  eV     1   --> A              
     e( 10 - 10) =      0.86703  eV     1   --> A              
     e( 11 - 11) =      1.68303  eV     1   --> A              
     e( 12 - 12) =      2.08597  eV     1   --> A              
     e( 13 - 13) =      2.52095  eV     1   --> A              
     e( 14 - 14) =      2.64465  eV     1   --> A              
     e( 15 - 15) =      2.83142  eV     1   --> A              
     e( 16 - 16) =      3.15478  eV     1   --> A              
     e( 17 - 17) =      3.42754  eV     1   --> A              
     e( 18 - 18) =      3.61837  eV     1   --> A              
     e( 19 - 19) =      3.84789  eV     1   --> A              
     e( 20 - 20) =      4.25528  eV     1   --> A              
     e( 21 - 21) =      4.79518  eV     1   --> A              
     e( 22 - 22) =      5.50181  eV     1   --> A              
     e( 23 - 23) =      5.85401  eV     1   --> A              
     e( 24 - 24) =      5.91084  eV     1   --> A              
     e( 25 - 25) =      6.75088  eV     1   --> A              
     e( 26 - 26) =      7.19772  eV     1   --> A              
     e( 27 - 27) =      7.59233  eV     1   --> A              
     e( 28 - 28) =      7.73758  eV     1   --> A              
     e( 29 - 29) =      8.60165  eV     1   --> A              
     e( 30 - 30) =      8.76964  eV     1   --> A              

 **************************************************************************

 **************************************************************************

                    xk=(   0.11554,   0.06639,   0.00000  )

     Band symmetry, C_1 (1)     point group:

     e(  1 -  1) =    -16.16141  eV     1   --> A              
     e(  2 -  2) =    -16.05431  eV     1   --> A              
     e(  3 -  3) =     -8.22999  eV     1   --> A              
     e(  4 -  4) =     -6.19108  eV     1   --> A              
     e(  5 -  5) =     -5.00185  eV     1   --> A              
     e(  6 -  6) =     -4.92435  eV     1   --> A              
     e(  7 -  7) =     -4.43831  eV     1   --> A              
     e(  8 -  8) =     -4.37606  eV     1   --> A              
     e(  9 -  9) =     -3.22329  eV     1   --> A              
     e( 10 - 10) =      1.01952  eV     1   --> A              
     e( 11 - 11) =      1.80427  eV     1   --> A              
     e( 12 - 12) =      1.95188  eV     1   --> A              
     e( 13 - 13) =      2.56272  eV     1   --> A              
     e( 14 - 14) =      2.67855  eV     1   --> A              
     e( 15 - 15) =      2.93074  eV     1   --> A              
     e( 16 - 16) =      3.09233  eV     1   --> A              
     e( 17 - 17) =      3.48784  eV     1   --> A              
     e( 18 - 18) =      3.64076  eV     1   --> A              
     e( 19 - 19) =      3.99172  eV     1   --> A              
     e( 20 - 20) =      4.28122  eV     1   --> A              
     e( 21 - 21) =      4.77720  eV     1   --> A              
     e( 22 - 22) =      5.36726  eV     1   --> A              
     e( 23 - 23) =      5.76493  eV     1   --> A              
     e( 24 - 24) =      5.90748  eV     1   --> A              
     e( 25 - 25) =      6.79262  eV     1   --> A              
     e( 26 - 26) =      7.23190  eV     1   --> A              
     e( 27 - 27) =      7.54070  eV     1   --> A              
     e( 28 - 28) =      7.63588  eV     1   --> A              
     e( 29 - 29) =      8.69564  eV     1   --> A              
     e( 30 - 30) =      8.95686  eV     1   --> A              

 **************************************************************************

 **************************************************************************

                    xk=(   0.13479,   0.07746,   0.00000  )

     Band symmetry, C_1 (1)     point group:

     e(  1 -  1) =    -16.11942  eV     1   --> A              
     e(  2 -  2) =    -16.01398  eV     1   --> A              
     e(  3 -  3) =     -8.18971  eV     1   --> A              
     e(  4 -  4) =     -6.17327  eV     1   --> A              
     e(  5 -  5) =     -5.20384  eV     1   --> A              
     e(  6 -  6) =     -5.11917  eV     1   --> A              
     e(  7 -  7) =     -4.50755  eV     1   --> A              
     e(  8 -  8) =     -4.44055  eV     1   --> A              
     e(  9 -  9) =     -3.19736  eV     1   --> A              
     e( 10 - 10) =      1.17422  eV     1   --> A              
     e( 11 - 11) =      1.74684  eV     1   --> A              
     e( 12 - 12) =      1.97890  eV     1   --> A              
     e( 13 - 13) =      2.59214  eV     1   --> A              
     e( 14 - 14) =      2.71463  eV     1   --> A              
     e( 15 - 15) =      3.03776  eV     1   --> A              
     e( 16 - 16) =      3.05036  eV     1   --> A              
     e( 17 - 17) =      3.56015  eV     1   --> A              
     e( 18 - 18) =      3.63793  eV     1   --> A              
     e( 19 - 19) =      4.13568  eV     1   --> A              
     e( 20 - 20) =      4.36291  eV     1   --> A              
     e( 21 - 21) =      4.72838  eV     1   --> A              
     e( 22 - 22) =      5.27148  eV     1   --> A              
     e( 23 - 23) =      5.71592  eV     1   --> A              
     e( 24 - 24) =      5.91289  eV     1   --> A              
     e( 25 - 25) =      6.81879  eV     1   --> A              
     e( 26 - 26) =      7.29063  eV     1   --> A              
     e( 27 - 27) =      7.47786  eV     1   --> A              
     e( 28 - 28) =      7.55494  eV     1   --> A              
     e( 29 - 29) =      8.77956  eV     1   --> A              
     e( 30 - 30) =      9.06914  eV     1   --> A              

 **************************************************************************

 **************************************************************************

                    xk=(   0.15405,   0.08853,   0.00000  )

     Band symmetry, C_1 (1)     point group:

     e(  1 -  1) =    -16.07175  eV     1   --> A              
     e(  2 -  2) =    -15.96822  eV     1   --> A              
     e(  3 -  3) =     -8.14637  eV     1   --> A              
     e(  4 -  4) =     -6.16687  eV     1   --> A              
     e(  5 -  5) =     -5.40781  eV     1   --> A              
     e(  6 -  6) =     -5.30511  eV     1   --> A              
     e(  7 -  7) =     -4.58805  eV     1   --> A              
     e(  8 -  8) =     -4.51530  eV     1   --> A              
     e(  9 -  9) =     -3.17358  eV     1   --> A              
     e( 10 - 10) =      1.32646  eV     1   --> A              
     e( 11 - 11) =      1.59342  eV     1   --> A              
     e( 12 - 12) =      2.07955  eV     1   --> A              
     e( 13 - 13) =      2.59858  eV     1   --> A              
     e( 14 - 14) =      2.75039  eV     1   --> A              
     e( 15 - 15) =      3.04050  eV     1   --> A              
     e( 16 - 16) =      3.14194  eV     1   --> A              
     e( 17 - 17) =      3.61169  eV     1   --> A              
     e( 18 - 18) =      3.64606  eV     1   --> A              
     e( 19 - 19) =      4.23504  eV     1   --> A              
     e( 20 - 20) =      4.54212  eV     1   --> A              
     e( 21 - 21) =      4.64916  eV     1   --> A              
     e( 22 - 22) =      5.21980  eV     1   --> A              
     e( 23 - 23) =      5.72856  eV     1   --> A              
     e( 24 - 24) =      5.93116  eV     1   --> A              
     e( 25 - 25) =      6.83142  eV     1   --> A              
     e( 26 - 26) =      7.35500  eV     1   --> A              
     e( 27 - 27) =      7.37043  eV     1   --> A              
     e( 28 - 28) =      7.54787  eV     1   --> A              
     e( 29 - 29) =      8.85251  eV     1   --> A              
     e( 30 - 30) =      9.18390  eV     1   --> A              

 **************************************************************************

 **************************************************************************

                    xk=(   0.17331,   0.09959,   0.00000  )

     Band symmetry, C_1 (1)     point group:

     e(  1 -  1) =    -16.01875  eV     1   --> A              
     e(  2 -  2) =    -15.91739  eV     1   --> A              
     e(  3 -  3) =     -8.10188  eV     1   --> A              
     e(  4 -  4) =     -6.18733  eV     1   --> A              
     e(  5 -  5) =     -5.60787  eV     1   --> A              
     e(  6 -  6) =     -5.46254  eV     1   --> A              
     e(  7 -  7) =     -4.67974  eV     1   --> A              
     e(  8 -  8) =     -4.60021  eV     1   --> A              
     e(  9 -  9) =     -3.15252  eV     1   --> A              
     e( 10 - 10) =      1.43547  eV     1   --> A              
     e( 11 - 11) =      1.47300  eV     1   --> A              
     e( 12 - 12) =      2.15618  eV     1   --> A              
     e( 13 - 13) =      2.58142  eV     1   --> A              
     e( 14 - 14) =      2.78621  eV     1   --> A              
     e( 15 - 15) =      3.06149  eV     1   --> A              
     e( 16 - 16) =      3.23647  eV     1   --> A              
     e( 17 - 17) =      3.56978  eV     1   --> A              
     e( 18 - 18) =      3.74562  eV     1   --> A              
     e( 19 - 19) =      4.31735  eV     1   --> A              
     e( 20 - 20) =      4.54470  eV     1   --> A              
     e( 21 - 21) =      4.78335  eV     1   --> A              
     e( 22 - 22) =      5.22346  eV     1   --> A              
     e( 23 - 23) =      5.80595  eV     1   --> A              
     e( 24 - 24) =      5.96565  eV     1   --> A              
     e( 25 - 25) =      6.83452  eV     1   --> A              
     e( 26 - 26) =      7.21556  eV     1   --> A              
     e( 27 - 27) =      7.46654  eV     1   --> A              
     e( 28 - 28) =      7.57692  eV     1   --> A              
     e( 29 - 29) =      8.91207  eV     1   --> A              
     e( 30 - 30) =      9.30234  eV     1   --> A              

 **************************************************************************

 **************************************************************************

                    xk=(   0.19256,   0.11066,   0.00000  )

     Band symmetry, C_1 (1)     point group:

     e(  1 -  1) =    -15.96084  eV     1   --> A              
     e(  2 -  2) =    -15.86191  eV     1   --> A              
     e(  3 -  3) =     -8.05889  eV     1   --> A              
     e(  4 -  4) =     -6.25595  eV     1   --> A              
     e(  5 -  5) =     -5.79815  eV     1   --> A              
     e(  6 -  6) =     -5.56685  eV     1   --> A              
     e(  7 -  7) =     -4.78235  eV     1   --> A              
     e(  8 -  8) =     -4.69501  eV     1   --> A              
     e(  9 -  9) =     -3.13491  eV     1   --> A              
     e( 10 - 10) =      1.28004  eV     1   --> A              
     e( 11 - 11) =      1.61108  eV     1   --> A              
     e( 12 - 12) =      2.19315  eV     1   --> A              
     e( 13 - 13) =      2.55199  eV     1   --> A              
     e( 14 - 14) =      2.82811  eV     1   --> A              
     e( 15 - 15) =      3.09364  eV     1   --> A              
     e( 16 - 16) =      3.32370  eV     1   --> A              
     e( 17 - 17) =      3.53048  eV     1   --> A              
     e( 18 - 18) =      3.85557  eV     1   --> A              
     e( 19 - 19) =      4.40842  eV     1   --> A              
     e( 20 - 20) =      4.42502  eV     1   --> A              
     e( 21 - 21) =      5.04477  eV     1   --> A              
     e( 22 - 22) =      5.28552  eV     1   --> A              
     e( 23 - 23) =      5.94030  eV     1   --> A              
     e( 24 - 24) =      6.01863  eV     1   --> A              
     e( 25 - 25) =      6.83326  eV     1   --> A              
     e( 26 - 26) =      7.07960  eV     1   --> A              
     e( 27 - 27) =      7.57559  eV     1   --> A              
     e( 28 - 28) =      7.63185  eV     1   --> A              
     e( 29 - 29) =      8.95355  eV     1   --> A              
     e( 30 - 30) =      9.42555  eV     1   --> A              

 **************************************************************************

 **************************************************************************

                    xk=(   0.21182,   0.12172,   0.00000  )

     Band symmetry, C_1 (1)     point group:

     e(  1 -  1) =    -15.89849  eV     1   --> A              
     e(  2 -  2) =    -15.80224  eV     1   --> A              
     e(  3 -  3) =     -8.02095  eV     1   --> A              
     e(  4 -  4) =     -6.38067  eV     1   --> A              
     e(  5 -  5) =     -5.97243  eV     1   --> A              
     e(  6 -  6) =     -5.60752  eV     1   --> A              
     e(  7 -  7) =     -4.89542  eV     1   --> A              
     e(  8 -  8) =     -4.79930  eV     1   --> A              
     e(  9 -  9) =     -3.12165  eV     1   --> A              
     e( 10 - 10) =      1.12904  eV     1   --> A              
     e( 11 - 11) =      1.73729  eV     1   --> A              
     e( 12 - 12) =      2.18243  eV     1   --> A              
     e( 13 - 13) =      2.52276  eV     1   --> A              
     e( 14 - 14) =      2.88524  eV     1   --> A              
     e( 15 - 15) =      3.10751  eV     1   --> A              
     e( 16 - 16) =      3.41119  eV     1   --> A              
     e( 17 - 17) =      3.52323  eV     1   --> A              
     e( 18 - 18) =      3.96771  eV     1   --> A              
     e( 19 - 19) =      4.30915  eV     1   --> A              
     e( 20 - 20) =      4.51346  eV     1   --> A              
     e( 21 - 21) =      5.29512  eV     1   --> A              
     e( 22 - 22) =      5.39105  eV     1   --> A              
     e( 23 - 23) =      6.09047  eV     1   --> A              
     e( 24 - 24) =      6.11764  eV     1   --> A              
     e( 25 - 25) =      6.83857  eV     1   --> A              
     e( 26 - 26) =      6.96827  eV     1   --> A              
     e( 27 - 27) =      7.69571  eV     1   --> A              
     e( 28 - 28) =      7.71077  eV     1   --> A              
     e( 29 - 29) =      8.97129  eV     1   --> A              
     e( 30 - 30) =      9.55444  eV     1   --> A              

 **************************************************************************

 **************************************************************************

                    xk=(   0.23108,   0.13279,   0.00000  )

     Band symmetry, C_1 (1)     point group:

     e(  1 -  1) =    -15.83225  eV     1   --> A              
     e(  2 -  2) =    -15.73893  eV     1   --> A              
     e(  3 -  3) =     -7.99265  eV     1   --> A              
     e(  4 -  4) =     -6.54446  eV     1   --> A              
     e(  5 -  5) =     -6.12399  eV     1   --> A              
     e(  6 -  6) =     -5.59957  eV     1   --> A              
     e(  7 -  7) =     -5.01829  eV     1   --> A              
     e(  8 -  8) =     -4.91248  eV     1   --> A              
     e(  9 -  9) =     -3.11375  eV     1   --> A              
     e( 10 - 10) =      0.98301  eV     1   --> A              
     e( 11 - 11) =      1.84620  eV     1   --> A              
     e( 12 - 12) =      2.12765  eV     1   --> A              
     e( 13 - 13) =      2.50197  eV     1   --> A              
     e( 14 - 14) =      2.96132  eV     1   --> A              
     e( 15 - 15) =      3.08756  eV     1   --> A              
     e( 16 - 16) =      3.50411  eV     1   --> A              
     e( 17 - 17) =      3.56946  eV     1   --> A              
     e( 18 - 18) =      4.04722  eV     1   --> A              
     e( 19 - 19) =      4.24461  eV     1   --> A              
     e( 20 - 20) =      4.63252  eV     1   --> A              
     e( 21 - 21) =      5.49521  eV     1   --> A              
     e( 22 - 22) =      5.51927  eV     1   --> A              
     e( 23 - 23) =      6.17611  eV     1   --> A              
     e( 24 - 24) =      6.30266  eV     1   --> A              
     e( 25 - 25) =      6.88137  eV     1   --> A              
     e( 26 - 26) =      6.91839  eV     1   --> A              
     e( 27 - 27) =      7.81385  eV     1   --> A              
     e( 28 - 28) =      7.82608  eV     1   --> A              
     e( 29 - 29) =      8.96264  eV     1   --> A              
     e( 30 - 30) =      9.68983  eV     1   --> A              

 **************************************************************************

 **************************************************************************

                    xk=(   0.25033,   0.14385,   0.00000  )

     Band symmetry, C_1 (1)     point group:

     e(  1 -  1) =    -15.76275  eV     1   --> A              
     e(  2 -  2) =    -15.67258  eV     1   --> A              
     e(  3 -  3) =     -7.97926  eV     1   --> A              
     e(  4 -  4) =     -6.72574  eV     1   --> A              
     e(  5 -  5) =     -6.24574  eV     1   --> A              
     e(  6 -  6) =     -5.56306  eV     1   --> A              
     e(  7 -  7) =     -5.15005  eV     1   --> A              
     e(  8 -  8) =     -5.03378  eV     1   --> A              
     e(  9 -  9) =     -3.11227  eV     1   --> A              
     e( 10 - 10) =      0.84171  eV     1   --> A              
     e( 11 - 11) =      1.92970  eV     1   --> A              
     e( 12 - 12) =      2.04197  eV     1   --> A              
     e( 13 - 13) =      2.49352  eV     1   --> A              
     e( 14 - 14) =      3.05232  eV     1   --> A              
     e( 15 - 15) =      3.05381  eV     1   --> A              
     e( 16 - 16) =      3.60175  eV     1   --> A              
     e( 17 - 17) =      3.66089  eV     1   --> A              
     e( 18 - 18) =      4.02398  eV     1   --> A              
     e( 19 - 19) =      4.31506  eV     1   --> A              
     e( 20 - 20) =      4.76469  eV     1   --> A              
     e( 21 - 21) =      5.60141  eV     1   --> A              
     e( 22 - 22) =      5.65405  eV     1   --> A              
     e( 23 - 23) =      6.26367  eV     1   --> A              
     e( 24 - 24) =      6.42488  eV     1   --> A              
     e( 25 - 25) =      6.97661  eV     1   --> A              
     e( 26 - 26) =      7.02465  eV     1   --> A              
     e( 27 - 27) =      7.94334  eV     1   --> A              
     e( 28 - 28) =      7.96665  eV     1   --> A              
     e( 29 - 29) =      8.93206  eV     1   --> A              
     e( 30 - 30) =      9.83249  eV     1   --> A              

 **************************************************************************

 **************************************************************************

                    xk=(   0.26959,   0.15492,   0.00000  )

     Band symmetry, C_1 (1)     point group:

     e(  1 -  1) =    -15.69069  eV     1   --> A              
     e(  2 -  2) =    -15.60389  eV     1   --> A              
     e(  3 -  3) =     -7.98571  eV     1   --> A              
     e(  4 -  4) =     -6.91075  eV     1   --> A              
     e(  5 -  5) =     -6.33131  eV     1   --> A              
     e(  6 -  6) =     -5.51063  eV     1   --> A              
     e(  7 -  7) =     -5.28966  eV     1   --> A              
     e(  8 -  8) =     -5.16220  eV     1   --> A              
     e(  9 -  9) =     -3.11827  eV     1   --> A              
     e( 10 - 10) =      0.70436  eV     1   --> A              
     e( 11 - 11) =      1.93991  eV     1   --> A              
     e( 12 - 12) =      1.97877  eV     1   --> A              
     e( 13 - 13) =      2.49645  eV     1   --> A              
     e( 14 - 14) =      3.03867  eV     1   --> A              
     e( 15 - 15) =      3.15095  eV     1   --> A              
     e( 16 - 16) =      3.69499  eV     1   --> A              
     e( 17 - 17) =      3.78085  eV     1   --> A              
     e( 18 - 18) =      3.98517  eV     1   --> A              
     e( 19 - 19) =      4.45158  eV     1   --> A              
     e( 20 - 20) =      4.90870  eV     1   --> A              
     e( 21 - 21) =      5.59690  eV     1   --> A              
     e( 22 - 22) =      5.78286  eV     1   --> A              
     e( 23 - 23) =      6.35490  eV     1   --> A              
     e( 24 - 24) =      6.46195  eV     1   --> A              
     e( 25 - 25) =      7.14636  eV     1   --> A              
     e( 26 - 26) =      7.28137  eV     1   --> A              
     e( 27 - 27) =      8.10389  eV     1   --> A              
     e( 28 - 28) =      8.11867  eV     1   --> A              
     e( 29 - 29) =      8.89100  eV     1   --> A              
     e( 30 - 30) =      9.92118  eV     1   --> A              

 **************************************************************************

 **************************************************************************

                    xk=(   0.28885,   0.16599,   0.00000  )

     Band symmetry, C_1 (1)     point group:

     e(  1 -  1) =    -15.61684  eV     1   --> A              
     e(  2 -  2) =    -15.53361  eV     1   --> A              
     e(  3 -  3) =     -8.01469  eV     1   --> A              
     e(  4 -  4) =     -7.09182  eV     1   --> A              
     e(  5 -  5) =     -6.37684  eV     1   --> A              
     e(  6 -  6) =     -5.44964  eV     1   --> A              
     e(  7 -  7) =     -5.43590  eV     1   --> A              
     e(  8 -  8) =     -5.29611  eV     1   --> A              
     e(  9 -  9) =     -3.13264  eV     1   --> A              
     e( 10 - 10) =      0.56987  eV     1   --> A              
     e( 11 - 11) =      1.83319  eV     1   --> A              
     e( 12 - 12) =      1.98867  eV     1   --> A              
     e( 13 - 13) =      2.50617  eV     1   --> A              
     e( 14 - 14) =      3.06572  eV     1   --> A              
     e( 15 - 15) =      3.24812  eV     1   --> A              
     e( 16 - 16) =      3.76480  eV     1   --> A              
     e( 17 - 17) =      3.91949  eV     1   --> A              
     e( 18 - 18) =      4.00388  eV     1   --> A              
     e( 19 - 19) =      4.60807  eV     1   --> A              
     e( 20 - 20) =      5.06188  eV     1   --> A              
     e( 21 - 21) =      5.51081  eV     1   --> A              
     e( 22 - 22) =      5.88969  eV     1   --> A              
     e( 23 - 23) =      6.46197  eV     1   --> A              
     e( 24 - 24) =      6.47258  eV     1   --> A              
     e( 25 - 25) =      7.37316  eV     1   --> A              
     e( 26 - 26) =      7.58172  eV     1   --> A              
     e( 27 - 27) =      8.28679  eV     1   --> A              
     e( 28 - 28) =      8.30131  eV     1   --> A              
     e( 29 - 29) =      8.85747  eV     1   --> A              
     e( 30 - 30) =      9.94919  eV     1   --> A              

 **************************************************************************

 **************************************************************************

                    xk=(   0.30810,   0.17705,   0.00000  )

     Band symmetry, C_1 (1)     point group:

     e(  1 -  1) =    -15.54205  eV     1   --> A              
     e(  2 -  2) =    -15.46255  eV     1   --> A              
     e(  3 -  3) =     -8.06503  eV     1   --> A              
     e(  4 -  4) =     -7.26437  eV     1   --> A              
     e(  5 -  5) =     -6.38257  eV     1   --> A              
     e(  6 -  6) =     -5.58745  eV     1   --> A              
     e(  7 -  7) =     -5.44262  eV     1   --> A              
     e(  8 -  8) =     -5.37581  eV     1   --> A              
     e(  9 -  9) =     -3.15601  eV     1   --> A              
     e( 10 - 10) =      0.43702  eV     1   --> A              
     e( 11 - 11) =      1.73036  eV     1   --> A              
     e( 12 - 12) =      1.96280  eV     1   --> A              
     e( 13 - 13) =      2.52087  eV     1   --> A              
     e( 14 - 14) =      3.14098  eV     1   --> A              
     e( 15 - 15) =      3.33397  eV     1   --> A              
     e( 16 - 16) =      3.81683  eV     1   --> A              
     e( 17 - 17) =      4.07174  eV     1   --> A              
     e( 18 - 18) =      4.08970  eV     1   --> A              
     e( 19 - 19) =      4.77667  eV     1   --> A              
     e( 20 - 20) =      5.20702  eV     1   --> A              
     e( 21 - 21) =      5.39949  eV     1   --> A              
     e( 22 - 22) =      5.95215  eV     1   --> A              
     e( 23 - 23) =      6.51201  eV     1   --> A              
     e( 24 - 24) =      6.58519  eV     1   --> A              
     e( 25 - 25) =      7.60317  eV     1   --> A              
     e( 26 - 26) =      7.84555  eV     1   --> A              
     e( 27 - 27) =      8.48102  eV     1   --> A              
     e( 28 - 28) =      8.53611  eV     1   --> A              
     e( 29 - 29) =      8.86525  eV     1   --> A              
     e( 30 - 30) =      9.95467  eV     1   --> A              

 **************************************************************************

 **************************************************************************

                    xk=(   0.32736,   0.18812,   0.00000  )

     Band symmetry, C_1 (1)     point group:

     e(  1 -  1) =    -15.46724  eV     1   --> A              
     e(  2 -  2) =    -15.39161  eV     1   --> A              
     e(  3 -  3) =     -8.13182  eV     1   --> A              
     e(  4 -  4) =     -7.42534  eV     1   --> A              
     e(  5 -  5) =     -6.35276  eV     1   --> A              
     e(  6 -  6) =     -5.74292  eV     1   --> A              
     e(  7 -  7) =     -5.58321  eV     1   --> A              
     e(  8 -  8) =     -5.30903  eV     1   --> A              
     e(  9 -  9) =     -3.18865  eV     1   --> A              
     e( 10 - 10) =      0.30472  eV     1   --> A              
     e( 11 - 11) =      1.63743  eV     1   --> A              
     e( 12 - 12) =      1.91105  eV     1   --> A              
     e( 13 - 13) =      2.54297  eV     1   --> A              
     e( 14 - 14) =      3.25605  eV     1   --> A              
     e( 15 - 15) =      3.40249  eV     1   --> A              
     e( 16 - 16) =      3.88916  eV     1   --> A              
     e( 17 - 17) =      4.20865  eV     1   --> A              
     e( 18 - 18) =      4.23407  eV     1   --> A              
     e( 19 - 19) =      4.95472  eV     1   --> A              
     e( 20 - 20) =      5.18338  eV     1   --> A              
     e( 21 - 21) =      5.45094  eV     1   --> A              
     e( 22 - 22) =      5.96214  eV     1   --> A              
     e( 23 - 23) =      6.60546  eV     1   --> A              
     e( 24 - 24) =      6.71978  eV     1   --> A              
     e( 25 - 25) =      7.80868  eV     1   --> A              
     e( 26 - 26) =      7.99558  eV     1   --> A              
     e( 27 - 27) =      8.68621  eV     1   --> A              
     e( 28 - 28) =      8.79221  eV     1   --> A              
     e( 29 - 29) =      8.98635  eV     1   --> A              
     e( 30 - 30) =      9.93209  eV     1   --> A              

 **************************************************************************

 **************************************************************************

                    xk=(   0.34661,   0.19918,   0.00000  )

     Band symmetry, C_1 (1)     point group:

     e(  1 -  1) =    -15.39342  eV     1   --> A              
     e(  2 -  2) =    -15.32172  eV     1   --> A              
     e(  3 -  3) =     -8.20813  eV     1   --> A              
     e(  4 -  4) =     -7.57249  eV     1   --> A              
     e(  5 -  5) =     -6.29402  eV     1   --> A              
     e(  6 -  6) =     -5.90081  eV     1   --> A              
     e(  7 -  7) =     -5.72958  eV     1   --> A              
     e(  8 -  8) =     -5.23834  eV     1   --> A              
     e(  9 -  9) =     -3.23036  eV     1   --> A              
     e( 10 - 10) =      0.17231  eV     1   --> A              
     e( 11 - 11) =      1.55831  eV     1   --> A              
     e( 12 - 12) =      1.84531  eV     1   --> A              
     e( 13 - 13) =      2.57358  eV     1   --> A              
     e( 14 - 14) =      3.39944  eV     1   --> A              
     e( 15 - 15) =      3.45867  eV     1   --> A              
     e( 16 - 16) =      3.99538  eV     1   --> A              
     e( 17 - 17) =      4.33705  eV     1   --> A              
     e( 18 - 18) =      4.40123  eV     1   --> A              
     e( 19 - 19) =      5.04605  eV     1   --> A              
     e( 20 - 20) =      5.13966  eV     1   --> A              
     e( 21 - 21) =      5.62891  eV     1   --> A              
     e( 22 - 22) =      5.94327  eV     1   --> A              
     e( 23 - 23) =      6.74148  eV     1   --> A              
     e( 24 - 24) =      6.86101  eV     1   --> A              
     e( 25 - 25) =      7.98246  eV     1   --> A              
     e( 26 - 26) =      8.01967  eV     1   --> A              
     e( 27 - 27) =      8.85465  eV     1   --> A              
     e( 28 - 28) =      9.03040  eV     1   --> A              
     e( 29 - 29) =      9.26348  eV     1   --> A              
     e( 30 - 30) =      9.88823  eV     1   --> A              

 **************************************************************************

 **************************************************************************

                    xk=(   0.36587,   0.21025,   0.00000  )

     Band symmetry, C_1 (1)     point group:

     e(  1 -  1) =    -15.32160  eV     1   --> A              
     e(  2 -  2) =    -15.25385  eV     1   --> A              
     e(  3 -  3) =     -8.28698  eV     1   --> A              
     e(  4 -  4) =     -7.70408  eV     1   --> A              
     e(  5 -  5) =     -6.21367  eV     1   --> A              
     e(  6 -  6) =     -6.05927  eV     1   --> A              
     e(  7 -  7) =     -5.87771  eV     1   --> A              
     e(  8 -  8) =     -5.16813  eV     1   --> A              
     e(  9 -  9) =     -3.28040  eV     1   --> A              
     e( 10 - 10) =      0.03973  eV     1   --> A              
     e( 11 - 11) =      1.49504  eV     1   --> A              
     e( 12 - 12) =      1.77586  eV     1   --> A              
     e( 13 - 13) =      2.61056  eV     1   --> A              
     e( 14 - 14) =      3.51426  eV     1   --> A              
     e( 15 - 15) =      3.56252  eV     1   --> A              
     e( 16 - 16) =      4.12848  eV     1   --> A              
     e( 17 - 17) =      4.46220  eV     1   --> A              
     e( 18 - 18) =      4.55488  eV     1   --> A              
     e( 19 - 19) =      4.92827  eV     1   --> A              
     e( 20 - 20) =      5.32704  eV     1   --> A              
     e( 21 - 21) =      5.82708  eV     1   --> A              
     e( 22 - 22) =      5.92868  eV     1   --> A              
     e( 23 - 23) =      6.89830  eV     1   --> A              
     e( 24 - 24) =      7.00371  eV     1   --> A              
     e( 25 - 25) =      7.97036  eV     1   --> A              
     e( 26 - 26) =      8.12468  eV     1   --> A              
     e( 27 - 27) =      9.01206  eV     1   --> A              
     e( 28 - 28) =      9.19634  eV     1   --> A              
     e( 29 - 29) =      9.59063  eV     1   --> A              
     e( 30 - 30) =      9.83074  eV     1   --> A              

 **************************************************************************

 **************************************************************************

                    xk=(   0.38513,   0.22131,   0.00000  )

     Band symmetry, C_1 (1)     point group:

     e(  1 -  1) =    -15.25285  eV     1   --> A              
     e(  2 -  2) =    -15.18900  eV     1   --> A              
     e(  3 -  3) =     -8.36244  eV     1   --> A              
     e(  4 -  4) =     -7.81869  eV     1   --> A              
     e(  5 -  5) =     -6.22047  eV     1   --> A              
     e(  6 -  6) =     -6.11438  eV     1   --> A              
     e(  7 -  7) =     -6.02611  eV     1   --> A              
     e(  8 -  8) =     -5.10005  eV     1   --> A              
     e(  9 -  9) =     -3.33749  eV     1   --> A              
     e( 10 - 10) =     -0.09231  eV     1   --> A              
     e( 11 - 11) =      1.44796  eV     1   --> A              
     e( 12 - 12) =      1.71032  eV     1   --> A              
     e( 13 - 13) =      2.64941  eV     1   --> A              
     e( 14 - 14) =      3.57860  eV     1   --> A              
     e( 15 - 15) =      3.73966  eV     1   --> A              
     e( 16 - 16) =      4.27864  eV     1   --> A              
     e( 17 - 17) =      4.57381  eV     1   --> A              
     e( 18 - 18) =      4.61268  eV     1   --> A              
     e( 19 - 19) =      4.92796  eV     1   --> A              
     e( 20 - 20) =      5.50754  eV     1   --> A              
     e( 21 - 21) =      5.94949  eV     1   --> A              
     e( 22 - 22) =      6.03626  eV     1   --> A              
     e( 23 - 23) =      7.05574  eV     1   --> A              
     e( 24 - 24) =      7.14094  eV     1   --> A              
     e( 25 - 25) =      7.90030  eV     1   --> A              
     e( 26 - 26) =      8.23545  eV     1   --> A              
     e( 27 - 27) =      9.16569  eV     1   --> A              
     e( 28 - 28) =      9.25518  eV     1   --> A              
     e( 29 - 29) =      9.71954  eV     1   --> A              
     e( 30 - 30) =      9.76514  eV     1   --> A              

 **************************************************************************

 **************************************************************************

                    xk=(   0.40438,   0.23238,   0.00000  )

     Band symmetry, C_1 (1)     point group:

     e(  1 -  1) =    -15.18820  eV     1   --> A              
     e(  2 -  2) =    -15.12813  eV     1   --> A              
     e(  3 -  3) =     -8.42995  eV     1   --> A              
     e(  4 -  4) =     -7.91523  eV     1   --> A              
     e(  5 -  5) =     -6.37612  eV     1   --> A              
     e(  6 -  6) =     -6.17341  eV     1   --> A              
     e(  7 -  7) =     -6.00841  eV     1   --> A              
     e(  8 -  8) =     -5.03548  eV     1   --> A              
     e(  9 -  9) =     -3.39983  eV     1   --> A              
     e( 10 - 10) =     -0.22245  eV     1   --> A              
     e( 11 - 11) =      1.41596  eV     1   --> A              
     e( 12 - 12) =      1.65397  eV     1   --> A              
     e( 13 - 13) =      2.68398  eV     1   --> A              
     e( 14 - 14) =      3.65652  eV     1   --> A              
     e( 15 - 15) =      3.92711  eV     1   --> A              
     e( 16 - 16) =      4.43770  eV     1   --> A              
     e( 17 - 17) =      4.54861  eV     1   --> A              
     e( 18 - 18) =      4.66363  eV     1   --> A              
     e( 19 - 19) =      5.07972  eV     1   --> A              
     e( 20 - 20) =      5.66672  eV     1   --> A              
     e( 21 - 21) =      6.03498  eV     1   --> A              
     e( 22 - 22) =      6.25312  eV     1   --> A              
     e( 23 - 23) =      7.18626  eV     1   --> A              
     e( 24 - 24) =      7.26280  eV     1   --> A              
     e( 25 - 25) =      7.85632  eV     1   --> A              
     e( 26 - 26) =      8.31646  eV     1   --> A              
     e( 27 - 27) =      9.22153  eV     1   --> A              
     e( 28 - 28) =      9.29633  eV     1   --> A              
     e( 29 - 29) =      9.59408  eV     1   --> A              
     e( 30 - 30) =      9.60805  eV     1   --> A              

 **************************************************************************

 **************************************************************************

                    xk=(   0.42364,   0.24345,   0.00000  )

     Band symmetry, C_1 (1)     point group:

     e(  1 -  1) =    -15.12864  eV     1   --> A              
     e(  2 -  2) =    -15.07213  eV     1   --> A              
     e(  3 -  3) =     -8.48621  eV     1   --> A              
     e(  4 -  4) =     -7.99294  eV     1   --> A              
     e(  5 -  5) =     -6.52914  eV     1   --> A              
     e(  6 -  6) =     -6.31821  eV     1   --> A              
     e(  7 -  7) =     -5.89612  eV     1   --> A              
     e(  8 -  8) =     -4.97563  eV     1   --> A              
     e(  9 -  9) =     -3.46515  eV     1   --> A              
     e( 10 - 10) =     -0.34878  eV     1   --> A              
     e( 11 - 11) =      1.39685  eV     1   --> A              
     e( 12 - 12) =      1.61045  eV     1   --> A              
     e( 13 - 13) =      2.70708  eV     1   --> A              
     e( 14 - 14) =      3.74980  eV     1   --> A              
     e( 15 - 15) =      4.12178  eV     1   --> A              
     e( 16 - 16) =      4.47464  eV     1   --> A              
     e( 17 - 17) =      4.59507  eV     1   --> A              
     e( 18 - 18) =      4.73220  eV     1   --> A              
     e( 19 - 19) =      5.27917  eV     1   --> A              
     e( 20 - 20) =      5.80339  eV     1   --> A              
     e( 21 - 21) =      6.19204  eV     1   --> A              
     e( 22 - 22) =      6.47323  eV     1   --> A              
     e( 23 - 23) =      7.25277  eV     1   --> A              
     e( 24 - 24) =      7.35706  eV     1   --> A              
     e( 25 - 25) =      7.88768  eV     1   --> A              
     e( 26 - 26) =      8.37745  eV     1   --> A              
     e( 27 - 27) =      9.11556  eV     1   --> A              
     e( 28 - 28) =      9.36354  eV     1   --> A              
     e( 29 - 29) =      9.45959  eV     1   --> A              
     e( 30 - 30) =      9.46121  eV     1   --> A              

 **************************************************************************

 **************************************************************************

                    xk=(   0.44290,   0.25451,   0.00000  )

     Band symmetry, C_1 (1)     point group:

     e(  1 -  1) =    -15.07507  eV     1   --> A              
     e(  2 -  2) =    -15.02184  eV     1   --> A              
     e(  3 -  3) =     -8.52911  eV     1   --> A              
     e(  4 -  4) =     -8.05147  eV     1   --> A              
     e(  5 -  5) =     -6.67704  eV     1   --> A              
     e(  6 -  6) =     -6.45898  eV     1   --> A              
     e(  7 -  7) =     -5.78291  eV     1   --> A              
     e(  8 -  8) =     -4.92155  eV     1   --> A              
     e(  9 -  9) =     -3.53074  eV     1   --> A              
     e( 10 - 10) =     -0.46901  eV     1   --> A              
     e( 11 - 11) =      1.38777  eV     1   --> A              
     e( 12 - 12) =      1.58211  eV     1   --> A              
     e( 13 - 13) =      2.71169  eV     1   --> A              
     e( 14 - 14) =      3.85860  eV     1   --> A              
     e( 15 - 15) =      4.31895  eV     1   --> A              
     e( 16 - 16) =      4.43137  eV     1   --> A              
     e( 17 - 17) =      4.71155  eV     1   --> A              
     e( 18 - 18) =      4.81658  eV     1   --> A              
     e( 19 - 19) =      5.49347  eV     1   --> A              
     e( 20 - 20) =      5.93646  eV     1   --> A              
     e( 21 - 21) =      6.39493  eV     1   --> A              
     e( 22 - 22) =      6.68679  eV     1   --> A              
     e( 23 - 23) =      7.25495  eV     1   --> A              
     e( 24 - 24) =      7.41729  eV     1   --> A              
     e( 25 - 25) =      8.00374  eV     1   --> A              
     e( 26 - 26) =      8.43368  eV     1   --> A              
     e( 27 - 27) =      8.96003  eV     1   --> A              
     e( 28 - 28) =      9.25658  eV     1   --> A              
     e( 29 - 29) =      9.35791  eV     1   --> A              
     e( 30 - 30) =      9.36709  eV     1   --> A              

 **************************************************************************

 **************************************************************************

                    xk=(   0.46215,   0.26558,   0.00000  )

     Band symmetry, C_1 (1)     point group:

     e(  1 -  1) =    -15.02823  eV     1   --> A              
     e(  2 -  2) =    -14.97792  eV     1   --> A              
     e(  3 -  3) =     -8.55759  eV     1   --> A              
     e(  4 -  4) =     -8.09096  eV     1   --> A              
     e(  5 -  5) =     -6.81780  eV     1   --> A              
     e(  6 -  6) =     -6.59400  eV     1   --> A              
     e(  7 -  7) =     -5.67337  eV     1   --> A              
     e(  8 -  8) =     -4.87412  eV     1   --> A              
     e(  9 -  9) =     -3.59363  eV     1   --> A              
     e( 10 - 10) =     -0.58066  eV     1   --> A              
     e( 11 - 11) =      1.38556  eV     1   --> A              
     e( 12 - 12) =      1.57022  eV     1   --> A              
     e( 13 - 13) =      2.69320  eV     1   --> A              
     e( 14 - 14) =      3.98225  eV     1   --> A              
     e( 15 - 15) =      4.41587  eV     1   --> A              
     e( 16 - 16) =      4.52985  eV     1   --> A              
     e( 17 - 17) =      4.75293  eV     1   --> A              
     e( 18 - 18) =      4.95295  eV     1   --> A              
     e( 19 - 19) =      5.71224  eV     1   --> A              
     e( 20 - 20) =      6.07355  eV     1   --> A              
     e( 21 - 21) =      6.61712  eV     1   --> A              
     e( 22 - 22) =      6.86856  eV     1   --> A              
     e( 23 - 23) =      7.24527  eV     1   --> A              
     e( 24 - 24) =      7.46413  eV     1   --> A              
     e( 25 - 25) =      8.15693  eV     1   --> A              
     e( 26 - 26) =      8.47511  eV     1   --> A              
     e( 27 - 27) =      8.81257  eV     1   --> A              
     e( 28 - 28) =      9.06215  eV     1   --> A              
     e( 29 - 29) =      9.22741  eV     1   --> A              
     e( 30 - 30) =      9.27216  eV     1   --> A              

 **************************************************************************

 **************************************************************************

                    xk=(   0.48141,   0.27664,   0.00000  )

     Band symmetry, C_1 (1)     point group:

     e(  1 -  1) =    -14.98868  eV     1   --> A              
     e(  2 -  2) =    -14.94087  eV     1   --> A              
     e(  3 -  3) =     -8.57175  eV     1   --> A              
     e(  4 -  4) =     -8.11231  eV     1   --> A              
     e(  5 -  5) =     -6.94906  eV     1   --> A              
     e(  6 -  6) =     -6.72116  eV     1   --> A              
     e(  7 -  7) =     -5.57217  eV     1   --> A              
     e(  8 -  8) =     -4.83398  eV     1   --> A              
     e(  9 -  9) =     -3.65064  eV     1   --> A              
     e( 10 - 10) =     -0.68114  eV     1   --> A              
     e( 11 - 11) =      1.38718  eV     1   --> A              
     e( 12 - 12) =      1.57497  eV     1   --> A              
     e( 13 - 13) =      2.65156  eV     1   --> A              
     e( 14 - 14) =      4.11965  eV     1   --> A              
     e( 15 - 15) =      4.45376  eV     1   --> A              
     e( 16 - 16) =      4.72720  eV     1   --> A              
     e( 17 - 17) =      4.77317  eV     1   --> A              
     e( 18 - 18) =      5.08645  eV     1   --> A              
     e( 19 - 19) =      5.92436  eV     1   --> A              
     e( 20 - 20) =      6.20714  eV     1   --> A              
     e( 21 - 21) =      6.83848  eV     1   --> A              
     e( 22 - 22) =      6.97095  eV     1   --> A              
     e( 23 - 23) =      7.27727  eV     1   --> A              
     e( 24 - 24) =      7.55976  eV     1   --> A              
     e( 25 - 25) =      8.28156  eV     1   --> A              
     e( 26 - 26) =      8.41589  eV     1   --> A              
     e( 27 - 27) =      8.76896  eV     1   --> A              
     e( 28 - 28) =      8.85288  eV     1   --> A              
     e( 29 - 29) =      9.03874  eV     1   --> A              
     e( 30 - 30) =      9.16760  eV     1   --> A              

 **************************************************************************

 **************************************************************************

                    xk=(   0.50067,   0.28771,   0.00000  )

     Band symmetry, C_1 (1)     point group:

     e(  1 -  1) =    -14.95676  eV     1   --> A              
     e(  2 -  2) =    -14.91098  eV     1   --> A              
     e(  3 -  3) =     -8.57291  eV     1   --> A              
     e(  4 -  4) =     -8.11740  eV     1   --> A              
     e(  5 -  5) =     -7.06785  eV     1   --> A              
     e(  6 -  6) =     -6.83771  eV     1   --> A              
     e(  7 -  7) =     -5.48390  eV     1   --> A              
     e(  8 -  8) =     -4.80153  eV     1   --> A              
     e(  9 -  9) =     -3.69876  eV     1   --> A              
     e( 10 - 10) =     -0.76783  eV     1   --> A              
     e( 11 - 11) =      1.39004  eV     1   --> A              
     e( 12 - 12) =      1.59518  eV     1   --> A              
     e( 13 - 13) =      2.59171  eV     1   --> A              
     e( 14 - 14) =      4.26956  eV     1   --> A              
     e( 15 - 15) =      4.52833  eV     1   --> A              
     e( 16 - 16) =      4.79220  eV     1   --> A              
     e( 17 - 17) =      4.91776  eV     1   --> A              
     e( 18 - 18) =      5.18893  eV     1   --> A              
     e( 19 - 19) =      6.10709  eV     1   --> A              
     e( 20 - 20) =      6.33017  eV     1   --> A              
     e( 21 - 21) =      6.99197  eV     1   --> A              
     e( 22 - 22) =      7.03866  eV     1   --> A              
     e( 23 - 23) =      7.38591  eV     1   --> A              
     e( 24 - 24) =      7.73876  eV     1   --> A              
     e( 25 - 25) =      8.25422  eV     1   --> A              
     e( 26 - 26) =      8.28394  eV     1   --> A              
     e( 27 - 27) =      8.64164  eV     1   --> A              
     e( 28 - 28) =      8.71776  eV     1   --> A              
     e( 29 - 29) =      8.90553  eV     1   --> A              
     e( 30 - 30) =      9.05037  eV     1   --> A              

 **************************************************************************

 **************************************************************************

                    xk=(   0.51992,   0.29878,   0.00000  )

     Band symmetry, C_1 (1)     point group:

     e(  1 -  1) =    -14.93255  eV     1   --> A              
     e(  2 -  2) =    -14.88831  eV     1   --> A              
     e(  3 -  3) =     -8.56393  eV     1   --> A              
     e(  4 -  4) =     -8.10953  eV     1   --> A              
     e(  5 -  5) =     -7.17032  eV     1   --> A              
     e(  6 -  6) =     -6.93988  eV     1   --> A              
     e(  7 -  7) =     -5.41272  eV     1   --> A              
     e(  8 -  8) =     -4.77688  eV     1   --> A              
     e(  9 -  9) =     -3.73559  eV     1   --> A              
     e( 10 - 10) =     -0.83820  eV     1   --> A              
     e( 11 - 11) =      1.39230  eV     1   --> A              
     e( 12 - 12) =      1.62771  eV     1   --> A              
     e( 13 - 13) =      2.52238  eV     1   --> A              
     e( 14 - 14) =      4.43064  eV     1   --> A              
     e( 15 - 15) =      4.63457  eV     1   --> A              
     e( 16 - 16) =      4.81456  eV     1   --> A              
     e( 17 - 17) =      5.08793  eV     1   --> A              
     e( 18 - 18) =      5.24149  eV     1   --> A              
     e( 19 - 19) =      6.21523  eV     1   --> A              
     e( 20 - 20) =      6.44826  eV     1   --> A              
     e( 21 - 21) =      7.02202  eV     1   --> A              
     e( 22 - 22) =      7.20457  eV     1   --> A              
     e( 23 - 23) =      7.55628  eV     1   --> A              
     e( 24 - 24) =      7.94953  eV     1   --> A              
     e( 25 - 25) =      8.07470  eV     1   --> A              
     e( 26 - 26) =      8.13278  eV     1   --> A              
     e( 27 - 27) =      8.47265  eV     1   --> A              
     e( 28 - 28) =      8.48686  eV     1   --> A              
     e( 29 - 29) =      8.84208  eV     1   --> A              
     e( 30 - 30) =      8.94444  eV     1   --> A              

 **************************************************************************

 **************************************************************************

                    xk=(   0.53918,   0.30984,   0.00000  )

     Band symmetry, C_1 (1)     point group:

     e(  1 -  1) =    -14.91590  eV     1   --> A              
     e(  2 -  2) =    -14.87273  eV     1   --> A              
     e(  3 -  3) =     -8.54940  eV     1   --> A              
     e(  4 -  4) =     -8.09394  eV     1   --> A              
     e(  5 -  5) =     -7.25139  eV     1   --> A              
     e(  6 -  6) =     -7.02231  eV     1   --> A              
     e(  7 -  7) =     -5.36167  eV     1   --> A              
     e(  8 -  8) =     -4.75991  eV     1   --> A              
     e(  9 -  9) =     -3.76000  eV     1   --> A              
     e( 10 - 10) =     -0.89000  eV     1   --> A              
     e( 11 - 11) =      1.39305  eV     1   --> A              
     e( 12 - 12) =      1.66632  eV     1   --> A              
     e( 13 - 13) =      2.45494  eV     1   --> A              
     e( 14 - 14) =      4.60143  eV     1   --> A              
     e( 15 - 15) =      4.76419  eV     1   --> A              
     e( 16 - 16) =      4.83896  eV     1   --> A              
     e( 17 - 17) =      5.21463  eV     1   --> A              
     e( 18 - 18) =      5.23105  eV     1   --> A              
     e( 19 - 19) =      6.21713  eV     1   --> A              
     e( 20 - 20) =      6.57258  eV     1   --> A              
     e( 21 - 21) =      7.13918  eV     1   --> A              
     e( 22 - 22) =      7.29264  eV     1   --> A              
     e( 23 - 23) =      7.69905  eV     1   --> A              
     e( 24 - 24) =      7.85420  eV     1   --> A              
     e( 25 - 25) =      8.02967  eV     1   --> A              
     e( 26 - 26) =      8.12011  eV     1   --> A              
     e( 27 - 27) =      8.34898  eV     1   --> A              
     e( 28 - 28) =      8.35812  eV     1   --> A              
     e( 29 - 29) =      8.66026  eV     1   --> A              
     e( 30 - 30) =      8.93541  eV     1   --> A              

 **************************************************************************

 **************************************************************************

                    xk=(   0.55844,   0.32091,   0.00000  )

     Band symmetry, C_1 (1)     point group:

     e(  1 -  1) =    -14.90641  eV     1   --> A              
     e(  2 -  2) =    -14.86384  eV     1   --> A              
     e(  3 -  3) =     -8.53558  eV     1   --> A              
     e(  4 -  4) =     -8.07807  eV     1   --> A              
     e(  5 -  5) =     -7.30481  eV     1   --> A              
     e(  6 -  6) =     -7.07783  eV     1   --> A              
     e(  7 -  7) =     -5.33196  eV     1   --> A              
     e(  8 -  8) =     -4.75022  eV     1   --> A              
     e(  9 -  9) =     -3.77268  eV     1   --> A              
     e( 10 - 10) =     -0.92147  eV     1   --> A              
     e( 11 - 11) =      1.39247  eV     1   --> A              
     e( 12 - 12) =      1.70019  eV     1   --> A              
     e( 13 - 13) =      2.40358  eV     1   --> A              
     e( 14 - 14) =      4.77811  eV     1   --> A              
     e( 15 - 15) =      4.86189  eV     1   --> A              
     e( 16 - 16) =      4.90500  eV     1   --> A              
     e( 17 - 17) =      5.15233  eV     1   --> A              
     e( 18 - 18) =      5.25971  eV     1   --> A              
     e( 19 - 19) =      6.16811  eV     1   --> A              
     e( 20 - 20) =      6.69524  eV     1   --> A              
     e( 21 - 21) =      7.22052  eV     1   --> A              
     e( 22 - 22) =      7.32432  eV     1   --> A              
     e( 23 - 23) =      7.67397  eV     1   --> A              
     e( 24 - 24) =      7.78557  eV     1   --> A              
     e( 25 - 25) =      8.00216  eV     1   --> A              
     e( 26 - 26) =      8.09259  eV     1   --> A              
     e( 27 - 27) =      8.33465  eV     1   --> A              
     e( 28 - 28) =      8.49242  eV     1   --> A              
     e( 29 - 29) =      8.52737  eV     1   --> A              
     e( 30 - 30) =      8.77241  eV     1   --> A              

 **************************************************************************

 **************************************************************************

                    xk=(   0.57769,   0.33197,   0.00000  )

     Band symmetry, C_1 (1)     point group:

     e(  1 -  1) =    -14.90350  eV     1   --> A              
     e(  2 -  2) =    -14.86111  eV     1   --> A              
     e(  3 -  3) =     -8.52951  eV     1   --> A              
     e(  4 -  4) =     -8.07079  eV     1   --> A              
     e(  5 -  5) =     -7.32403  eV     1   --> A              
     e(  6 -  6) =     -7.09823  eV     1   --> A              
     e(  7 -  7) =     -5.32263  eV     1   --> A              
     e(  8 -  8) =     -4.74721  eV     1   --> A              
     e(  9 -  9) =     -3.77623  eV     1   --> A              
     e( 10 - 10) =     -0.93181  eV     1   --> A              
     e( 11 - 11) =      1.39183  eV     1   --> A              
     e( 12 - 12) =      1.71445  eV     1   --> A              
     e( 13 - 13) =      2.38401  eV     1   --> A              
     e( 14 - 14) =      4.85800  eV     1   --> A              
     e( 15 - 15) =      4.96079  eV     1   --> A              
     e( 16 - 16) =      5.00720  eV     1   --> A              
     e( 17 - 17) =      5.01905  eV     1   --> A              
     e( 18 - 18) =      5.22460  eV     1   --> A              
     e( 19 - 19) =      6.14510  eV     1   --> A              
     e( 20 - 20) =      6.75836  eV     1   --> A              
     e( 21 - 21) =      7.14403  eV     1   --> A              
     e( 22 - 22) =      7.45639  eV     1   --> A              
     e( 23 - 23) =      7.57112  eV     1   --> A              
     e( 24 - 24) =      7.82365  eV     1   --> A              
     e( 25 - 25) =      7.91740  eV     1   --> A              
     e( 26 - 26) =      8.14187  eV     1   --> A              
     e( 27 - 27) =      8.32926  eV     1   --> A              
     e( 28 - 28) =      8.53154  eV     1   --> A              
     e( 29 - 29) =      8.56992  eV     1   --> A              
     e( 30 - 30) =      8.67967  eV     1   --> A              

 **************************************************************************

 **************************************************************************

                    xk=(   0.57769,   0.32091,   0.00000  )

     Band symmetry, C_1 (1)     point group:

     e(  1 -  1) =    -14.90407  eV     1   --> A              
     e(  2 -  2) =    -14.86165  eV     1   --> A              
     e(  3 -  3) =     -8.53135  eV     1   --> A              
     e(  4 -  4) =     -8.07313  eV     1   --> A              
     e(  5 -  5) =     -7.31885  eV     1   --> A              
     e(  6 -  6) =     -7.09260  eV     1   --> A              
     e(  7 -  7) =     -5.32469  eV     1   --> A              
     e(  8 -  8) =     -4.74784  eV     1   --> A              
     e(  9 -  9) =     -3.77545  eV     1   --> A              
     e( 10 - 10) =     -0.92946  eV     1   --> A              
     e( 11 - 11) =      1.39215  eV     1   --> A              
     e( 12 - 12) =      1.71061  eV     1   --> A              
     e( 13 - 13) =      2.38863  eV     1   --> A              
     e( 14 - 14) =      4.84096  eV     1   --> A              
     e( 15 - 15) =      4.87484  eV     1   --> A              
     e( 16 - 16) =      4.95115  eV     1   --> A              
     e( 17 - 17) =      5.10724  eV     1   --> A              
     e( 18 - 18) =      5.26333  eV     1   --> A              
     e( 19 - 19) =      6.14997  eV     1   --> A              
     e( 20 - 20) =      6.74325  eV     1   --> A              
     e( 21 - 21) =      7.16682  eV     1   --> A              
     e( 22 - 22) =      7.43318  eV     1   --> A              
     e( 23 - 23) =      7.57721  eV     1   --> A              
     e( 24 - 24) =      7.82107  eV     1   --> A              
     e( 25 - 25) =      7.95120  eV     1   --> A              
     e( 26 - 26) =      8.11999  eV     1   --> A              
     e( 27 - 27) =      8.33839  eV     1   --> A              
     e( 28 - 28) =      8.51923  eV     1   --> A              
     e( 29 - 29) =      8.55691  eV     1   --> A              
     e( 30 - 30) =      8.69552  eV     1   --> A              

 **************************************************************************

 **************************************************************************

                    xk=(   0.57769,   0.30984,   0.00000  )

     Band symmetry, C_1 (1)     point group:

     e(  1 -  1) =    -14.90598  eV     1   --> A              
     e(  2 -  2) =    -14.86343  eV     1   --> A              
     e(  3 -  3) =     -8.53698  eV     1   --> A              
     e(  4 -  4) =     -8.07995  eV     1   --> A              
     e(  5 -  5) =     -7.30370  eV     1   --> A              
     e(  6 -  6) =     -7.07631  eV     1   --> A              
     e(  7 -  7) =     -5.33065  eV     1   --> A              
     e(  8 -  8) =     -4.74982  eV     1   --> A              
     e(  9 -  9) =     -3.77387  eV     1   --> A              
     e( 10 - 10) =     -0.92225  eV     1   --> A              
     e( 11 - 11) =      1.39340  eV     1   --> A              
     e( 12 - 12) =      1.69869  eV     1   --> A              
     e( 13 - 13) =      2.40300  eV     1   --> A              
     e( 14 - 14) =      4.72901  eV     1   --> A              
     e( 15 - 15) =      4.84664  eV     1   --> A              
     e( 16 - 16) =      4.85457  eV     1   --> A              
     e( 17 - 17) =      5.20467  eV     1   --> A              
     e( 18 - 18) =      5.33081  eV     1   --> A              
     e( 19 - 19) =      6.15570  eV     1   --> A              
     e( 20 - 20) =      6.71834  eV     1   --> A              
     e( 21 - 21) =      7.20921  eV     1   --> A              
     e( 22 - 22) =      7.40597  eV     1   --> A              
     e( 23 - 23) =      7.56104  eV     1   --> A              
     e( 24 - 24) =      7.81656  eV     1   --> A              
     e( 25 - 25) =      8.03648  eV     1   --> A              
     e( 26 - 26) =      8.06989  eV     1   --> A              
     e( 27 - 27) =      8.32984  eV     1   --> A              
     e( 28 - 28) =      8.51029  eV     1   --> A              
     e( 29 - 29) =      8.52824  eV     1   --> A              
     e( 30 - 30) =      8.72872  eV     1   --> A              

 **************************************************************************

 **************************************************************************

                    xk=(   0.57769,   0.29878,   0.00000  )

     Band symmetry, C_1 (1)     point group:

     e(  1 -  1) =    -14.90911  eV     1   --> A              
     e(  2 -  2) =    -14.86636  eV     1   --> A              
     e(  3 -  3) =     -8.54652  eV     1   --> A              
     e(  4 -  4) =     -8.09132  eV     1   --> A              
     e(  5 -  5) =     -7.27862  eV     1   --> A              
     e(  6 -  6) =     -7.04946  eV     1   --> A              
     e(  7 -  7) =     -5.33999  eV     1   --> A              
     e(  8 -  8) =     -4.75305  eV     1   --> A              
     e(  9 -  9) =     -3.77199  eV     1   --> A              
     e( 10 - 10) =     -0.91054  eV     1   --> A              
     e( 11 - 11) =      1.39600  eV     1   --> A              
     e( 12 - 12) =      1.67939  eV     1   --> A              
     e( 13 - 13) =      2.42528  eV     1   --> A              
     e( 14 - 14) =      4.58993  eV     1   --> A              
     e( 15 - 15) =      4.71975  eV     1   --> A              
     e( 16 - 16) =      4.84027  eV     1   --> A              
     e( 17 - 17) =      5.30492  eV     1   --> A              
     e( 18 - 18) =      5.40745  eV     1   --> A              
     e( 19 - 19) =      6.15733  eV     1   --> A              
     e( 20 - 20) =      6.69639  eV     1   --> A              
     e( 21 - 21) =      7.25425  eV     1   --> A              
     e( 22 - 22) =      7.39054  eV     1   --> A              
     e( 23 - 23) =      7.52972  eV     1   --> A              
     e( 24 - 24) =      7.81996  eV     1   --> A              
     e( 25 - 25) =      8.01068  eV     1   --> A              
     e( 26 - 26) =      8.14644  eV     1   --> A              
     e( 27 - 27) =      8.29060  eV     1   --> A              
     e( 28 - 28) =      8.49457  eV     1   --> A              
     e( 29 - 29) =      8.49520  eV     1   --> A              
     e( 30 - 30) =      8.80058  eV     1   --> A              

 **************************************************************************

 **************************************************************************

                    xk=(   0.57769,   0.28771,   0.00000  )

     Band symmetry, C_1 (1)     point group:

     e(  1 -  1) =    -14.91334  eV     1   --> A              
     e(  2 -  2) =    -14.87034  eV     1   --> A              
     e(  3 -  3) =     -8.55985  eV     1   --> A              
     e(  4 -  4) =     -8.10696  eV     1   --> A              
     e(  5 -  5) =     -7.24396  eV     1   --> A              
     e(  6 -  6) =     -7.01252  eV     1   --> A              
     e(  7 -  7) =     -5.35220  eV     1   --> A              
     e(  8 -  8) =     -4.75740  eV     1   --> A              
     e(  9 -  9) =     -3.77025  eV     1   --> A              
     e( 10 - 10) =     -0.89481  eV     1   --> A              
     e( 11 - 11) =      1.40044  eV     1   --> A              
     e( 12 - 12) =      1.65398  eV     1   --> A              
     e( 13 - 13) =      2.45254  eV     1   --> A              
     e( 14 - 14) =      4.43741  eV     1   --> A              
     e( 15 - 15) =      4.58297  eV     1   --> A              
     e( 16 - 16) =      4.82157  eV     1   --> A              
     e( 17 - 17) =      5.40728  eV     1   --> A              
     e( 18 - 18) =      5.48623  eV     1   --> A              
     e( 19 - 19) =      6.15191  eV     1   --> A              
     e( 20 - 20) =      6.68172  eV     1   --> A              
     e( 21 - 21) =      7.29251  eV     1   --> A              
[...]

 **************************************************************************

                    xk=(   0.15405,   0.00000,   0.00000  )

     Band symmetry, C_s (m)     point group:

     e(  1 -  1) =    -16.12222  eV     1   --> A'             
     e(  2 -  2) =    -16.01666  eV     1   --> A'             
     e(  3 -  3) =     -8.19236  eV     1   --> A'             
     e(  4 -  4) =     -6.17462  eV     1   --> A'             
     e(  5 -  5) =     -5.20756  eV     1   --> A'             
     e(  6 -  6) =     -5.12083  eV     1   --> A'             
     e(  7 -  7) =     -4.47518  eV     1   --> A''            
     e(  8 -  8) =     -4.41301  eV     1   --> A''            
     e(  9 -  9) =     -3.20087  eV     1   --> A'             
     e( 10 - 10) =      1.11761  eV     1   --> A'             
     e( 11 - 11) =      1.46995  eV     1   --> A'             
     e( 12 - 12) =      2.33099  eV     1   --> A'             
     e( 13 - 13) =      2.55233  eV     1   --> A'             
     e( 14 - 14) =      2.76497  eV     1   --> A'             
     e( 15 - 15) =      2.91700  eV     1   --> A''            
     e( 16 - 16) =      3.09068  eV     1   --> A'             
     e( 17 - 17) =      3.54902  eV     1   --> A'             
     e( 18 - 18) =      3.92007  eV     1   --> A'             
     e( 19 - 19) =      3.96980  eV     1   --> A''            
     e( 20 - 20) =      4.26550  eV     1   --> A'             
     e( 21 - 21) =      4.68479  eV     1   --> A'             
     e( 22 - 22) =      5.30083  eV     1   --> A'             
     e( 23 - 23) =      5.86966  eV     1   --> A''            
     e( 24 - 24) =      5.90390  eV     1   --> A'             
     e( 25 - 25) =      6.56213  eV     1   --> A'             
     e( 26 - 26) =      7.33353  eV     1   --> A'             
     e( 27 - 27) =      7.46799  eV     1   --> A'             
     e( 28 - 28) =      7.63643  eV     1   --> A''            
     e( 29 - 29) =      8.98949  eV     1   --> A'             
     e( 30 - 30) =      9.03001  eV     1   --> A'             

 **************************************************************************

 **************************************************************************

                    xk=(   0.13479,   0.00000,   0.00000  )

     Band symmetry, C_s (m)     point group:

     e(  1 -  1) =    -16.15865  eV     1   --> A'             
     e(  2 -  2) =    -16.05165  eV     1   --> A'             
     e(  3 -  3) =     -8.22724  eV     1   --> A'             
     e(  4 -  4) =     -6.18970  eV     1   --> A'             
     e(  5 -  5) =     -5.02468  eV     1   --> A'             
     e(  6 -  6) =     -4.94532  eV     1   --> A'             
     e(  7 -  7) =     -4.42797  eV     1   --> A''            
     e(  8 -  8) =     -4.36811  eV     1   --> A''            
     e(  9 -  9) =     -3.22253  eV     1   --> A'             
     e( 10 - 10) =      1.00692  eV     1   --> A'             
     e( 11 - 11) =      1.58005  eV     1   --> A'             
     e( 12 - 12) =      2.22838  eV     1   --> A'             
     e( 13 - 13) =      2.54344  eV     1   --> A'             
     e( 14 - 14) =      2.71166  eV     1   --> A'             
     e( 15 - 15) =      2.85815  eV     1   --> A''            
     e( 16 - 16) =      3.11441  eV     1   --> A'             
     e( 17 - 17) =      3.48991  eV     1   --> A'             
     e( 18 - 18) =      3.84053  eV     1   --> A''            
     e( 19 - 19) =      3.84747  eV     1   --> A'             
     e( 20 - 20) =      4.25224  eV     1   --> A'             
     e( 21 - 21) =      4.75041  eV     1   --> A'             
     e( 22 - 22) =      5.34492  eV     1   --> A'             
     e( 23 - 23) =      5.89094  eV     1   --> A''            
     e( 24 - 24) =      5.90356  eV     1   --> A'             
     e( 25 - 25) =      6.62575  eV     1   --> A'             
     e( 26 - 26) =      7.25928  eV     1   --> A'             
     e( 27 - 27) =      7.50665  eV     1   --> A'             
     e( 28 - 28) =      7.69759  eV     1   --> A''            
     e( 29 - 29) =      8.87224  eV     1   --> A'             
     e( 30 - 30) =      8.90509  eV     1   --> A''            

 **************************************************************************

 **************************************************************************

                    xk=(   0.11554,   0.00000,   0.00000  )

     Band symmetry, C_s (m)     point group:

     e(  1 -  1) =    -16.19060  eV     1   --> A'             
     e(  2 -  2) =    -16.08236  eV     1   --> A'             
     e(  3 -  3) =     -8.25890  eV     1   --> A'             
     e(  4 -  4) =     -6.20781  eV     1   --> A'             
     e(  5 -  5) =     -4.84974  eV     1   --> A'             
     e(  6 -  6) =     -4.77425  eV     1   --> A'             
     e(  7 -  7) =     -4.38498  eV     1   --> A''            
     e(  8 -  8) =     -4.32729  eV     1   --> A''            
     e(  9 -  9) =     -3.24570  eV     1   --> A'             
     e( 10 - 10) =      0.88685  eV     1   --> A'             
     e( 11 - 11) =      1.61455  eV     1   --> A'             
     e( 12 - 12) =      2.18716  eV     1   --> A'             
     e( 13 - 13) =      2.52002  eV     1   --> A'             
     e( 14 - 14) =      2.66923  eV     1   --> A'             
     e( 15 - 15) =      2.79905  eV     1   --> A''            
     e( 16 - 16) =      3.15587  eV     1   --> A'             
     e( 17 - 17) =      3.43798  eV     1   --> A'             
     e( 18 - 18) =      3.72488  eV     1   --> A''            
     e( 19 - 19) =      3.78748  eV     1   --> A'             
     e( 20 - 20) =      4.24728  eV     1   --> A'             
     e( 21 - 21) =      4.78556  eV     1   --> A'             
     e( 22 - 22) =      5.44499  eV     1   --> A'             
     e( 23 - 23) =      5.90821  eV     1   --> A'             
     e( 24 - 24) =      5.92775  eV     1   --> A''            
     e( 25 - 25) =      6.66629  eV     1   --> A'             
     e( 26 - 26) =      7.20663  eV     1   --> A'             
     e( 27 - 27) =      7.56040  eV     1   --> A'             
     e( 28 - 28) =      7.75815  eV     1   --> A''            
     e( 29 - 29) =      8.71874  eV     1   --> A'             
     e( 30 - 30) =      8.75703  eV     1   --> A''            

 **************************************************************************

 **************************************************************************

                    xk=(   0.09628,   0.00000,   0.00000  )

     Band symmetry, C_s (m)     point group:

     e(  1 -  1) =    -16.21791  eV     1   --> A'             
     e(  2 -  2) =    -16.10861  eV     1   --> A'             
     e(  3 -  3) =     -8.28662  eV     1   --> A'             
     e(  4 -  4) =     -6.22585  eV     1   --> A'             
     e(  5 -  5) =     -4.68697  eV     1   --> A'             
     e(  6 -  6) =     -4.61460  eV     1   --> A'             
     e(  7 -  7) =     -4.34700  eV     1   --> A''            
     e(  8 -  8) =     -4.29127  eV     1   --> A''            
     e(  9 -  9) =     -3.26996  eV     1   --> A'             
     e( 10 - 10) =      0.76569  eV     1   --> A'             
     e( 11 - 11) =      1.56226  eV     1   --> A'             
     e( 12 - 12) =      2.22703  eV     1   --> A'             
     e( 13 - 13) =      2.48794  eV     1   --> A'             
     e( 14 - 14) =      2.63570  eV     1   --> A'             
     e( 15 - 15) =      2.74305  eV     1   --> A''            
     e( 16 - 16) =      3.20994  eV     1   --> A'             
     e( 17 - 17) =      3.39327  eV     1   --> A'             
     e( 18 - 18) =      3.62441  eV     1   --> A''            
     e( 19 - 19) =      3.73752  eV     1   --> A'             
     e( 20 - 20) =      4.24659  eV     1   --> A'             
     e( 21 - 21) =      4.79234  eV     1   --> A'             
     e( 22 - 22) =      5.58827  eV     1   --> A'             
     e( 23 - 23) =      5.91560  eV     1   --> A'             
     e( 24 - 24) =      5.97480  eV     1   --> A''            
     e( 25 - 25) =      6.67402  eV     1   --> A'             
     e( 26 - 26) =      7.18191  eV     1   --> A'             
     e( 27 - 27) =      7.62832  eV     1   --> A'             
     e( 28 - 28) =      7.81545  eV     1   --> A''            
     e( 29 - 29) =      8.57898  eV     1   --> A'             
     e( 30 - 30) =      8.61680  eV     1   --> A''            

 **************************************************************************

 **************************************************************************

                    xk=(   0.07702,   0.00000,   0.00000  )

     Band symmetry, C_s (m)     point group:

     e(  1 -  1) =    -16.24043  eV     1   --> A'             
     e(  2 -  2) =    -16.13028  eV     1   --> A'             
     e(  3 -  3) =     -8.30990  eV     1   --> A'             
     e(  4 -  4) =     -6.24206  eV     1   --> A'             
     e(  5 -  5) =     -4.54106  eV     1   --> A'             
     e(  6 -  6) =     -4.47257  eV     1   --> A'             
     e(  7 -  7) =     -4.31476  eV     1   --> A''            
     e(  8 -  8) =     -4.26074  eV     1   --> A''            
     e(  9 -  9) =     -3.29461  eV     1   --> A'             
     e( 10 - 10) =      0.65166  eV     1   --> A'             
     e( 11 - 11) =      1.46830  eV     1   --> A'             
     e( 12 - 12) =      2.30644  eV     1   --> A'             
     e( 13 - 13) =      2.45429  eV     1   --> A'             
     e( 14 - 14) =      2.61144  eV     1   --> A'             
     e( 15 - 15) =      2.69309  eV     1   --> A''            
     e( 16 - 16) =      3.26853  eV     1   --> A'             
     e( 17 - 17) =      3.35595  eV     1   --> A'             
     e( 18 - 18) =      3.54043  eV     1   --> A''            
     e( 19 - 19) =      3.69603  eV     1   --> A'             
     e( 20 - 20) =      4.24762  eV     1   --> A'             
     e( 21 - 21) =      4.78372  eV     1   --> A'             
     e( 22 - 22) =      5.75147  eV     1   --> A'             
     e( 23 - 23) =      5.92382  eV     1   --> A'             
     e( 24 - 24) =      6.02635  eV     1   --> A''            
     e( 25 - 25) =      6.65125  eV     1   --> A'             
     e( 26 - 26) =      7.18007  eV     1   --> A'             
     e( 27 - 27) =      7.70824  eV     1   --> A'             
     e( 28 - 28) =      7.86688  eV     1   --> A''            
     e( 29 - 29) =      8.45963  eV     1   --> A'             
     e( 30 - 30) =      8.48972  eV     1   --> A''            

 **************************************************************************

 **************************************************************************

                    xk=(   0.05777,   0.00000,   0.00000  )

     Band symmetry, C_s (m)     point group:

     e(  1 -  1) =    -16.25806  eV     1   --> A'             
     e(  2 -  2) =    -16.14724  eV     1   --> A'             
     e(  3 -  3) =     -8.32834  eV     1   --> A'             
     e(  4 -  4) =     -6.25542  eV     1   --> A'             
     e(  5 -  5) =     -4.41735  eV     1   --> A'             
     e(  6 -  6) =     -4.35403  eV     1   --> A'             
     e(  7 -  7) =     -4.28892  eV     1   --> A''            
     e(  8 -  8) =     -4.23630  eV     1   --> A''            
     e(  9 -  9) =     -3.31840  eV     1   --> A'             
     e( 10 - 10) =      0.55262  eV     1   --> A'             
     e( 11 - 11) =      1.37287  eV     1   --> A'             
     e( 12 - 12) =      2.38472  eV     1   --> A'             
     e( 13 - 13) =      2.42433  eV     1   --> A'             
     e( 14 - 14) =      2.59879  eV     1   --> A'             
     e( 15 - 15) =      2.65165  eV     1   --> A''            
     e( 16 - 16) =      3.32413  eV     1   --> A'             
     e( 17 - 17) =      3.32623  eV     1   --> A'             
     e( 18 - 18) =      3.47398  eV     1   --> A''            
     e( 19 - 19) =      3.66214  eV     1   --> A'             
     e( 20 - 20) =      4.24900  eV     1   --> A'             
     e( 21 - 21) =      4.76985  eV     1   --> A'             
     e( 22 - 22) =      5.91311  eV     1   --> A'             
     e( 23 - 23) =      5.93142  eV     1   --> A'             
     e( 24 - 24) =      6.07627  eV     1   --> A''            
     e( 25 - 25) =      6.61240  eV     1   --> A'             
     e( 26 - 26) =      7.18578  eV     1   --> A'             
     e( 27 - 27) =      7.79625  eV     1   --> A'             
     e( 28 - 28) =      7.90999  eV     1   --> A''            
     e( 29 - 29) =      8.36534  eV     1   --> A'             
     e( 30 - 30) =      8.38150  eV     1   --> A''            

 **************************************************************************

 **************************************************************************

                    xk=(   0.03851,   0.00000,   0.00000  )

     Band symmetry, C_s (m)     point group:

     e(  1 -  1) =    -16.27071  eV     1   --> A'             
     e(  2 -  2) =    -16.15942  eV     1   --> A'             
     e(  3 -  3) =     -8.34169  eV     1   --> A'             
     e(  4 -  4) =     -6.26531  eV     1   --> A'             
     e(  5 -  5) =     -4.32188  eV     1   --> A'             
     e(  6 -  6) =     -4.27004  eV     1   --> A''            
     e(  7 -  7) =     -4.26447  eV     1   --> A'             
     e(  8 -  8) =     -4.21845  eV     1   --> A''            
     e(  9 -  9) =     -3.33915  eV     1   --> A'             
     e( 10 - 10) =      0.47576  eV     1   --> A'             
     e( 11 - 11) =      1.29557  eV     1   --> A'             
     e( 12 - 12) =      2.40128  eV     1   --> A'             
     e( 13 - 13) =      2.43949  eV     1   --> A'             
     e( 14 - 14) =      2.60092  eV     1   --> A'             
     e( 15 - 15) =      2.62068  eV     1   --> A''            
     e( 16 - 16) =      3.30445  eV     1   --> A'             
     e( 17 - 17) =      3.37050  eV     1   --> A'             
     e( 18 - 18) =      3.42592  eV     1   --> A''            
     e( 19 - 19) =      3.63574  eV     1   --> A'             
     e( 20 - 20) =      4.25013  eV     1   --> A'             
     e( 21 - 21) =      4.75664  eV     1   --> A'             
     e( 22 - 22) =      5.93739  eV     1   --> A'             
     e( 23 - 23) =      6.05336  eV     1   --> A'             
     e( 24 - 24) =      6.11823  eV     1   --> A''            
     e( 25 - 25) =      6.57310  eV     1   --> A'             
     e( 26 - 26) =      7.18678  eV     1   --> A'             
     e( 27 - 27) =      7.88541  eV     1   --> A'             
     e( 28 - 28) =      7.94260  eV     1   --> A''            
     e( 29 - 29) =      8.29815  eV     1   --> A''            
     e( 30 - 30) =      8.29866  eV     1   --> A'             

 **************************************************************************

 **************************************************************************

                    xk=(   0.01926,   0.00000,   0.00000  )

     Band symmetry, C_s (m)     point group:

     e(  1 -  1) =    -16.27832  eV     1   --> A'             
     e(  2 -  2) =    -16.16675  eV     1   --> A'             
     e(  3 -  3) =     -8.34977  eV     1   --> A'             
     e(  4 -  4) =     -6.27138  eV     1   --> A'             
     e(  5 -  5) =     -4.26098  eV     1   --> A'             
     e(  6 -  6) =     -4.25853  eV     1   --> A''            
     e(  7 -  7) =     -4.20857  eV     1   --> A'             
     e(  8 -  8) =     -4.20759  eV     1   --> A''            
     e(  9 -  9) =     -3.35376  eV     1   --> A'             
     e( 10 - 10) =      0.42699  eV     1   --> A'             
     e( 11 - 11) =      1.24601  eV     1   --> A'             
     e( 12 - 12) =      2.38689  eV     1   --> A'             
     e( 13 - 13) =      2.46506  eV     1   --> A'             
     e( 14 - 14) =      2.60154  eV     1   --> A''            
     e( 15 - 15) =      2.61328  eV     1   --> A'             
     e( 16 - 16) =      3.29107  eV     1   --> A'             
     e( 17 - 17) =      3.39684  eV     1   --> A''            
     e( 18 - 18) =      3.40206  eV     1   --> A'             
     e( 19 - 19) =      3.61794  eV     1   --> A'             
     e( 20 - 20) =      4.25082  eV     1   --> A'             
     e( 21 - 21) =      4.74749  eV     1   --> A'             
     e( 22 - 22) =      5.94118  eV     1   --> A'             
     e( 23 - 23) =      6.14634  eV     1   --> A''            
     e( 24 - 24) =      6.15142  eV     1   --> A'             
     e( 25 - 25) =      6.54460  eV     1   --> A'             
     e( 26 - 26) =      7.18189  eV     1   --> A'             
     e( 27 - 27) =      7.96134  eV     1   --> A'             
     e( 28 - 28) =      7.96293  eV     1   --> A''            
     e( 29 - 29) =      8.24531  eV     1   --> A''            
     e( 30 - 30) =      8.25973  eV     1   --> A'             

 **************************************************************************

 **************************************************************************

                    xk=(   0.00000,   0.00000,   0.00000  )

     Band symmetry, C_s (m)     point group:

     e(  1 -  1) =    -16.28086  eV     1   --> A'             
     e(  2 -  2) =    -16.16919  eV     1   --> A'             
     e(  3 -  3) =     -8.35247  eV     1   --> A'             
     e(  4 -  4) =     -6.27343  eV     1   --> A'             
     e(  5 -  5) =     -4.25467  eV     1   --> A''            
     e(  6 -  6) =     -4.23996  eV     1   --> A'             
     e(  7 -  7) =     -4.20394  eV     1   --> A''            
     e(  8 -  8) =     -4.18956  eV     1   --> A'             
     e(  9 -  9) =     -3.35909  eV     1   --> A'             
     e( 10 - 10) =      0.41026  eV     1   --> A'             
     e( 11 - 11) =      1.22899  eV     1   --> A'             
     e( 12 - 12) =      2.38201  eV     1   --> A'             
     e( 13 - 13) =      2.47144  eV     1   --> A'             
     e( 14 - 14) =      2.59507  eV     1   --> A''            
     e( 15 - 15) =      2.62019  eV     1   --> A'             
     e( 16 - 16) =      3.28654  eV     1   --> A'             
     e( 17 - 17) =      3.38710  eV     1   --> A''            
     e( 18 - 18) =      3.41347  eV     1   --> A'             
     e( 19 - 19) =      3.61142  eV     1   --> A'             
     e( 20 - 20) =      4.25105  eV     1   --> A'             
     e( 21 - 21) =      4.74425  eV     1   --> A'             
     e( 22 - 22) =      5.94247  eV     1   --> A'             
     e( 23 - 23) =      6.15625  eV     1   --> A''            
     e( 24 - 24) =      6.18723  eV     1   --> A'             
     e( 25 - 25) =      6.53414  eV     1   --> A'             
     e( 26 - 26) =      7.17858  eV     1   --> A'             
     e( 27 - 27) =      7.96985  eV     1   --> A''            
     e( 28 - 28) =      7.99449  eV     1   --> A'             
     e( 29 - 29) =      8.22717  eV     1   --> A''            
     e( 30 - 30) =      8.24706  eV     1   --> A'             

 **************************************************************************
 
     BANDS        :      8.36s CPU     10.52s WALL

 
   This run was terminated on:  12: 4:52  22Jun2023            

=------------------------------------------------------------------------------=
   JOB DONE.
=------------------------------------------------------------------------------=
