
     Program PWSCF v.7.0 starts on 22Jun2023 at 12: 1:54 

     This program is part of the open-source Quantum ESPRESSO suite
     for quantum simulation of materials; please cite
         "P. Giannozzi et al., J. Phys.:Condens. Matter 21 395502 (2009);
         "P. Giannozzi et al., J. Phys.:Condens. Matter 29 465901 (2017);
         "P. Giannozzi et al., J. Chem. Phys. 152 154105 (2020);
          URL http://www.quantum-espresso.org", 
     in publications or presentations arising from this work. More details at
     http://www.quantum-espresso.org/quote

     Parallel version (MPI), running on    10 processors

     MPI processes distributed on     1 nodes
     R & G space division:  proc/nbgrp/npool/nimage =      10
     24475 MiB available memory on the printing compute node when the environment starts
 
     Waiting for input...
     Reading input from standard input

     Current dimensions of program PWSCF are:
     Max number of different atomic species (ntypx) = 10
     Max number of k-points (npk) =  40000
     Max angular momentum in pseudopotentials (lmaxx) =  4
     Message from routine volume:
     axis vectors are left-handed
     file Al.pbe-n-kjpaw_psl.1.0.0.UPF: wavefunction(s)  3S 3P renormalized
     file S.pbe-n-kjpaw_psl.1.0.0.UPF: wavefunction(s)  3S 3P renormalized

     IMPORTANT: XC functional enforced from input :
     Exchange-correlation= VDW-DF2-B86R
                           (   1   4  26   0   2   0   0)
     Any further DFT definition will be discarded
     Please, verify this is what you really want

     Message from routine setup:
     using ibrav=0 with symmetry is DISCOURAGED, use correct ibrav instead

     Subspace diagonalization in iterative solution of the eigenvalue problem:
     a serial algorithm will be used

 
     Parallelization info
     --------------------
     sticks:   dense  smooth     PW     G-vecs:    dense   smooth      PW
     Min          74      74     23                11662    11662    2005
     Max          75      75     25                11703    11703    2012
     Sum         745     745    239               116821   116821   20087
 
     Using Slab Decomposition
 


     bravais-lattice index     =            0
     lattice parameter (alat)  =       6.7418  a.u.
     unit-cell volume          =    1861.7354 (a.u.)^3
     number of atoms/cell      =            4
     number of atomic types    =            2
     number of electrons       =        18.00
     number of Kohn-Sham states=           30
     kinetic-energy cutoff     =      60.0000  Ry
     charge density cutoff     =     240.0000  Ry
     scf convergence threshold =      1.0E-08
     mixing beta               =       0.5000
     number of iterations used =            8  plain     mixing
     Exchange-correlation= VDW-DF2-B86R
                           (   1   4  26   0   2   0   0)

     celldm(1)=   6.741753  celldm(2)=   0.000000  celldm(3)=   0.000000
     celldm(4)=   0.000000  celldm(5)=   0.000000  celldm(6)=   0.000000

     crystal axes: (cart. coord. in units of alat)
               a(1) = (   0.865522   0.500870   0.000000 )  
               a(2) = (   0.865522  -0.500870   0.000000 )  
               a(3) = (   0.000000   0.000000   7.007548 )  

     reciprocal axes: (cart. coord. in units 2 pi/alat)
               b(1) = (  0.577686  0.998263  0.000000 )  
               b(2) = (  0.577686 -0.998263  0.000000 )  
               b(3) = (  0.000000  0.000000  0.142703 )  


     PseudoPot. # 1 for Al read from file:
     /home/mainadmin/research/danu/pseudo/Al.pbe-n-kjpaw_psl.1.0.0.UPF
     MD5 check sum: 502b6b27b9c6270cab5dd1084b96fa6d
     Pseudo is Projector augmented-wave + core cor, Zval =  3.0
     Generated using &quot;atomic&quot; code by A. Dal Corso  v.6.3
     Shape of augmentation charge: PSQ
     Using radial grid of 1135 points,  6 beta functions with: 
                l(1) =   0
                l(2) =   0
                l(3) =   1
                l(4) =   1
                l(5) =   2
                l(6) =   2
     Q(r) pseudized with 0 coefficients 


     PseudoPot. # 2 for S  read from file:
     /home/mainadmin/research/danu/pseudo/S.pbe-n-kjpaw_psl.1.0.0.UPF
     MD5 check sum: fb45dfebcf3e72a4e1bd4a866ec2e262
     Pseudo is Projector augmented-wave + core cor, Zval =  6.0
     Generated using &quot;atomic&quot; code by A. Dal Corso  v.6.3
     Shape of augmentation charge: PSQ
     Using radial grid of 1151 points,  6 beta functions with: 
                l(1) =   0
                l(2) =   0
                l(3) =   1
                l(4) =   1
                l(5) =   2
                l(6) =   2
     Q(r) pseudized with 0 coefficients 


     atomic species   valence    mass     pseudopotential
        Al             3.00    26.98100     Al( 1.00)
        S              6.00    32.06500     S ( 1.00)

      2 Sym. Ops. (no inversion) found


                                    s                        frac. trans.

      isym =  1     identity                                     

 cryst.   s( 1) = (     1          0          0      )
                  (     0          1          0      )
                  (     0          0          1      )

 cart.    s( 1) = (  1.0000000  0.0000000  0.0000000 )
                  (  0.0000000  1.0000000  0.0000000 )
                  (  0.0000000  0.0000000  1.0000000 )


      isym =  2     inv. 180 deg rotation - cart. axis [0,1,0]   

 cryst.   s( 2) = (     0          1          0      )
                  (     1          0          0      )
                  (     0          0          1      )

 cart.    s( 2) = (  1.0000000  0.0000000  0.0000000 )
                  (  0.0000000 -1.0000000  0.0000000 )
                  (  0.0000000  0.0000000  1.0000000 )


   Cartesian axes

     site n.     atom                  positions (alat units)
         1           S   tau(   1) = (   1.1541355   0.0000000   2.8496482  )
         2           Al  tau(   2) = (   0.5769797   0.0000000   3.1499436  )
         3           Al  tau(   3) = (   0.5767851   0.0000000   3.8759445  )
         4           S   tau(   4) = (   1.1541896   0.0000000   4.1762155  )

   Crystallographic axes

     site n.     atom                  positions (cryst. coord.)
         1           S   tau(   1) = (  0.6667276  0.6667276  0.4066541  )
         2           Al  tau(   2) = (  0.3333130  0.3333130  0.4495073  )
         3           Al  tau(   3) = (  0.3332005  0.3332005  0.5531100  )
         4           S   tau(   4) = (  0.6667589  0.6667589  0.5959596  )

     number of k points=    49
                       cart. coord. in units 2pi/alat
        k(    1) = (   0.0000000   0.0000000   0.0000000), wk =   0.0118343
        k(    2) = (   0.0444374  -0.0767894   0.0000000), wk =   0.0473373
        k(    3) = (   0.0888747  -0.1535789   0.0000000), wk =   0.0473373
        k(    4) = (   0.1333121  -0.2303683   0.0000000), wk =   0.0473373
        k(    5) = (   0.1777495  -0.3071578   0.0000000), wk =   0.0473373
        k(    6) = (   0.2221868  -0.3839472   0.0000000), wk =   0.0473373
        k(    7) = (   0.2666242  -0.4607367   0.0000000), wk =   0.0473373
        k(    8) = (   0.0888747   0.0000000   0.0000000), wk =   0.0236686
        k(    9) = (   0.1333121  -0.0767894   0.0000000), wk =   0.0473373
        k(   10) = (   0.1777495  -0.1535789   0.0000000), wk =   0.0473373
        k(   11) = (   0.2221868  -0.2303683   0.0000000), wk =   0.0473373
        k(   12) = (   0.2666242  -0.3071578   0.0000000), wk =   0.0473373
        k(   13) = (   0.3110616  -0.3839472   0.0000000), wk =   0.0473373
        k(   14) = (  -0.2221868   0.5375261   0.0000000), wk =   0.0473373
        k(   15) = (  -0.1777495   0.4607367   0.0000000), wk =   0.0473373
        k(   16) = (  -0.1333121   0.3839472   0.0000000), wk =   0.0473373
        k(   17) = (  -0.0888747   0.3071578   0.0000000), wk =   0.0473373
        k(   18) = (  -0.0444374   0.2303683   0.0000000), wk =   0.0473373
        k(   19) = (   0.0000000   0.1535789   0.0000000), wk =   0.0236686
        k(   20) = (   0.1777495   0.0000000   0.0000000), wk =   0.0236686
        k(   21) = (   0.2221868  -0.0767894   0.0000000), wk =   0.0473373
        k(   22) = (   0.2666242  -0.1535789   0.0000000), wk =   0.0473373
        k(   23) = (   0.3110616  -0.2303683   0.0000000), wk =   0.0473373
        k(   24) = (   0.3554989  -0.3071578   0.0000000), wk =   0.0473373
        k(   25) = (  -0.1777495   0.6143156   0.0000000), wk =   0.0473373
        k(   26) = (  -0.1333121   0.5375261   0.0000000), wk =   0.0473373
        k(   27) = (  -0.0888747   0.4607367   0.0000000), wk =   0.0473373
        k(   28) = (  -0.0444374   0.3839472   0.0000000), wk =   0.0473373
        k(   29) = (   0.0000000   0.3071578   0.0000000), wk =   0.0236686
        k(   30) = (   0.2666242   0.0000000   0.0000000), wk =   0.0236686
        k(   31) = (   0.3110616  -0.0767894   0.0000000), wk =   0.0473373
        k(   32) = (   0.3554989  -0.1535789   0.0000000), wk =   0.0473373
        k(   33) = (   0.3999363  -0.2303683   0.0000000), wk =   0.0473373
        k(   34) = (  -0.1333121   0.6911050   0.0000000), wk =   0.0473373
        k(   35) = (  -0.0888747   0.6143156   0.0000000), wk =   0.0473373
        k(   36) = (  -0.0444374   0.5375261   0.0000000), wk =   0.0473373
        k(   37) = (   0.0000000   0.4607367   0.0000000), wk =   0.0236686
        k(   38) = (   0.3554989   0.0000000   0.0000000), wk =   0.0236686
        k(   39) = (   0.3999363  -0.0767894   0.0000000), wk =   0.0473373
        k(   40) = (   0.4443737  -0.1535789   0.0000000), wk =   0.0473373
        k(   41) = (  -0.0888747   0.7678945   0.0000000), wk =   0.0473373
        k(   42) = (  -0.0444374   0.6911050   0.0000000), wk =   0.0473373
        k(   43) = (   0.0000000   0.6143156   0.0000000), wk =   0.0236686
        k(   44) = (   0.4443737   0.0000000   0.0000000), wk =   0.0236686
        k(   45) = (   0.4888110  -0.0767894   0.0000000), wk =   0.0473373
        k(   46) = (  -0.0444374   0.8446839   0.0000000), wk =   0.0473373
        k(   47) = (   0.0000000   0.7678945   0.0000000), wk =   0.0236686
        k(   48) = (   0.5332484   0.0000000   0.0000000), wk =   0.0236686
        k(   49) = (   0.0000000   0.9214734   0.0000000), wk =   0.0236686

                       cryst. coord.
        k(    1) = (   0.0000000   0.0000000   0.0000000), wk =   0.0118343
        k(    2) = (  -0.0000000   0.0769231   0.0000000), wk =   0.0473373
        k(    3) = (  -0.0000000   0.1538462   0.0000000), wk =   0.0473373
        k(    4) = (   0.0000000   0.2307692   0.0000000), wk =   0.0473373
        k(    5) = (  -0.0000000   0.3076923   0.0000000), wk =   0.0473373
        k(    6) = (   0.0000000   0.3846154   0.0000000), wk =   0.0473373
        k(    7) = (   0.0000000   0.4615385   0.0000000), wk =   0.0473373
        k(    8) = (   0.0769231   0.0769231   0.0000000), wk =   0.0236686
        k(    9) = (   0.0769231   0.1538462   0.0000000), wk =   0.0473373
        k(   10) = (   0.0769231   0.2307692   0.0000000), wk =   0.0473373
        k(   11) = (   0.0769231   0.3076923   0.0000000), wk =   0.0473373
        k(   12) = (   0.0769231   0.3846154   0.0000000), wk =   0.0473373
        k(   13) = (   0.0769231   0.4615385   0.0000000), wk =   0.0473373
        k(   14) = (   0.0769231  -0.4615385   0.0000000), wk =   0.0473373
        k(   15) = (   0.0769231  -0.3846154   0.0000000), wk =   0.0473373
        k(   16) = (   0.0769231  -0.3076923   0.0000000), wk =   0.0473373
        k(   17) = (   0.0769231  -0.2307692   0.0000000), wk =   0.0473373
        k(   18) = (   0.0769231  -0.1538462   0.0000000), wk =   0.0473373
        k(   19) = (   0.0769231  -0.0769231   0.0000000), wk =   0.0236686
        k(   20) = (   0.1538462   0.1538462   0.0000000), wk =   0.0236686
        k(   21) = (   0.1538462   0.2307692   0.0000000), wk =   0.0473373
        k(   22) = (   0.1538462   0.3076923   0.0000000), wk =   0.0473373
        k(   23) = (   0.1538462   0.3846154   0.0000000), wk =   0.0473373
        k(   24) = (   0.1538462   0.4615385   0.0000000), wk =   0.0473373
        k(   25) = (   0.1538462  -0.4615385   0.0000000), wk =   0.0473373
        k(   26) = (   0.1538462  -0.3846154   0.0000000), wk =   0.0473373
        k(   27) = (   0.1538462  -0.3076923   0.0000000), wk =   0.0473373
        k(   28) = (   0.1538462  -0.2307692   0.0000000), wk =   0.0473373
        k(   29) = (   0.1538462  -0.1538462   0.0000000), wk =   0.0236686
        k(   30) = (   0.2307692   0.2307692   0.0000000), wk =   0.0236686
        k(   31) = (   0.2307692   0.3076923   0.0000000), wk =   0.0473373
        k(   32) = (   0.2307692   0.3846154   0.0000000), wk =   0.0473373
        k(   33) = (   0.2307692   0.4615385   0.0000000), wk =   0.0473373
        k(   34) = (   0.2307692  -0.4615385   0.0000000), wk =   0.0473373
        k(   35) = (   0.2307692  -0.3846154   0.0000000), wk =   0.0473373
        k(   36) = (   0.2307692  -0.3076923   0.0000000), wk =   0.0473373
        k(   37) = (   0.2307692  -0.2307692   0.0000000), wk =   0.0236686
        k(   38) = (   0.3076923   0.3076923   0.0000000), wk =   0.0236686
        k(   39) = (   0.3076923   0.3846154   0.0000000), wk =   0.0473373
        k(   40) = (   0.3076923   0.4615385   0.0000000), wk =   0.0473373
        k(   41) = (   0.3076923  -0.4615385   0.0000000), wk =   0.0473373
        k(   42) = (   0.3076923  -0.3846154   0.0000000), wk =   0.0473373
        k(   43) = (   0.3076923  -0.3076923   0.0000000), wk =   0.0236686
        k(   44) = (   0.3846154   0.3846154   0.0000000), wk =   0.0236686
        k(   45) = (   0.3846154   0.4615385   0.0000000), wk =   0.0473373
        k(   46) = (   0.3846154  -0.4615385   0.0000000), wk =   0.0473373
        k(   47) = (   0.3846154  -0.3846154   0.0000000), wk =   0.0236686
        k(   48) = (   0.4615385   0.4615385   0.0000000), wk =   0.0236686
        k(   49) = (   0.4615385  -0.4615385   0.0000000), wk =   0.0236686

     Dense  grid:   116821 G-vectors     FFT dimensions: (  36,  36, 240)

     Dynamical RAM for                 wfc:       0.67 MB

     Dynamical RAM for     wfc (w. buffer):      33.44 MB

     Dynamical RAM for           str. fact:       0.36 MB

     Dynamical RAM for           local pot:       0.00 MB

     Dynamical RAM for          nlocal pot:       1.61 MB

     Dynamical RAM for                qrad:       2.49 MB

     Dynamical RAM for          rho,v,vnew:       1.25 MB

     Dynamical RAM for               rhoin:       0.42 MB

     Dynamical RAM for            rho*nmix:       2.85 MB

     Dynamical RAM for           G-vectors:       0.76 MB

     Dynamical RAM for          h,s,v(r/c):       0.16 MB

     Dynamical RAM for          <psi|beta>:       0.03 MB

     Dynamical RAM for                 psi:       1.34 MB

     Dynamical RAM for                hpsi:       1.34 MB

     Dynamical RAM for                spsi:       1.34 MB

     Dynamical RAM for      wfcinit/wfcrot:       1.36 MB

     Dynamical RAM for           addusdens:      33.46 MB

     Estimated static dynamical RAM per process >      42.03 MB

     Estimated max dynamical RAM per process >      78.33 MB

     Estimated total dynamical RAM >     783.34 MB

     Initial potential from superposition of free atoms

     starting charge      17.9954, renormalised to      18.0000

     negative rho (up, down):  2.357E-04 0.000E+00


     %%%%%%%%%%%%%%%%%%%%%%%%%%%%%%%%%%%%%%%%%%%%%%%%%%%%%%%%%%%%%%%%%%%%%%%%
     %                                                                      %
     % You are using vdW-DF, which was implemented by the Thonhauser group. %
     % Please cite the following two papers that made this development      %
     % possible and the two reviews that describe the various versions:     %
     %                                                                      %
     %   T. Thonhauser et al., PRL 115, 136402 (2015).                      %
     %   T. Thonhauser et al., PRB 76, 125112 (2007).                       %
     %   K. Berland et al., Rep. Prog. Phys. 78, 066501 (2015).             %
     %   D.C. Langreth et al., J. Phys.: Condens. Matter 21, 084203 (2009). %
     %                                                                      %
     %                                                                      %
     % If you are calculating the stress with vdW-DF, please also cite:     %
     %                                                                      %
     %   R. Sabatini et al., J. Phys.: Condens. Matter 24, 424209 (2012).   %
     %                                                                      %
     %%%%%%%%%%%%%%%%%%%%%%%%%%%%%%%%%%%%%%%%%%%%%%%%%%%%%%%%%%%%%%%%%%%%%%%%


     Carrying out vdW-DF run using the following parameters:
     Nqs    =  20  Npoints =  1024  r_max =  100.000
     q_mesh =  0.00001000  0.04494208  0.09755937  0.15916263
               0.23128650  0.31572767  0.41458969  0.53033537
               0.66584808  0.82450364  1.01025438  1.22772762
               1.48234092  1.78043706  2.12944203  2.53805004
               3.01644009  3.57652955  4.23227104  5.00000000


     -----------------------------------------------
     Non-local corr. energy    =       0.18916406 Ry
     -----------------------------------------------

     Starting wfcs are   16 randomized atomic wfcs +   14 random wfcs
     Checking if some PAW data can be deallocated... 
       PAW data deallocated on    5 nodes for type:  1
       PAW data deallocated on    5 nodes for type:  2

     total cpu time spent up to now is        5.0 secs

     Self-consistent Calculation

     iteration #  1     ecut=    60.00 Ry     beta= 0.50
     Davidson diagonalization with overlap

---- Real-time Memory Report at c_bands before calling an iterative solver
           145 MiB given to the printing process from OS
             0 MiB allocation reported by mallinfo(arena+hblkhd)
         23673 MiB available memory on the node where the printing process lives
------------------
     ethr =  1.00E-02,  avg # of iterations =  8.2

     Threshold (ethr) on eigenvalues was too large:
     Diagonalizing with lowered threshold

     Davidson diagonalization with overlap

---- Real-time Memory Report at c_bands before calling an iterative solver
           195 MiB given to the printing process from OS
             0 MiB allocation reported by mallinfo(arena+hblkhd)
         23193 MiB available memory on the node where the printing process lives
------------------
     ethr =  8.65E-04,  avg # of iterations =  1.2

     negative rho (up, down):  2.099E-04 0.000E+00


     -----------------------------------------------
     Non-local corr. energy    =       0.20051016 Ry
     -----------------------------------------------


     total cpu time spent up to now is       17.1 secs

     total energy              =    -210.98910376 Ry
     estimated scf accuracy    <       0.15611477 Ry

     iteration #  2     ecut=    60.00 Ry     beta= 0.50
     Davidson diagonalization with overlap

---- Real-time Memory Report at c_bands before calling an iterative solver
           199 MiB given to the printing process from OS
             0 MiB allocation reported by mallinfo(arena+hblkhd)
         23149 MiB available memory on the node where the printing process lives
------------------
     ethr =  8.67E-04,  avg # of iterations =  1.7

     negative rho (up, down):  1.893E-04 0.000E+00


     -----------------------------------------------
     Non-local corr. energy    =       0.20183673 Ry
     -----------------------------------------------


     total cpu time spent up to now is       20.8 secs

     total energy              =    -211.00713773 Ry
     estimated scf accuracy    <       0.02792183 Ry

     iteration #  3     ecut=    60.00 Ry     beta= 0.50
     Davidson diagonalization with overlap

---- Real-time Memory Report at c_bands before calling an iterative solver
           200 MiB given to the printing process from OS
             0 MiB allocation reported by mallinfo(arena+hblkhd)
         23145 MiB available memory on the node where the printing process lives
------------------
     ethr =  1.55E-04,  avg # of iterations =  7.2

     negative rho (up, down):  1.789E-04 0.000E+00


     -----------------------------------------------
     Non-local corr. energy    =       0.20346974 Ry
     -----------------------------------------------


     total cpu time spent up to now is       26.0 secs

     total energy              =    -211.01142361 Ry
     estimated scf accuracy    <       0.01936365 Ry

     iteration #  4     ecut=    60.00 Ry     beta= 0.50
     Davidson diagonalization with overlap

---- Real-time Memory Report at c_bands before calling an iterative solver
           200 MiB given to the printing process from OS
             0 MiB allocation reported by mallinfo(arena+hblkhd)
         23142 MiB available memory on the node where the printing process lives
------------------
     ethr =  1.08E-04,  avg # of iterations =  1.9

     negative rho (up, down):  1.693E-04 0.000E+00


     -----------------------------------------------
     Non-local corr. energy    =       0.20500708 Ry
     -----------------------------------------------


     total cpu time spent up to now is       29.8 secs

     total energy              =    -211.01469887 Ry
     estimated scf accuracy    <       0.00127008 Ry

     iteration #  5     ecut=    60.00 Ry     beta= 0.50
     Davidson diagonalization with overlap

---- Real-time Memory Report at c_bands before calling an iterative solver
           200 MiB given to the printing process from OS
             0 MiB allocation reported by mallinfo(arena+hblkhd)
         23139 MiB available memory on the node where the printing process lives
------------------
     ethr =  7.06E-06,  avg # of iterations =  8.6

     negative rho (up, down):  1.689E-04 0.000E+00


     -----------------------------------------------
     Non-local corr. energy    =       0.20499554 Ry
     -----------------------------------------------


     total cpu time spent up to now is       34.9 secs

     total energy              =    -211.01477081 Ry
     estimated scf accuracy    <       0.00002534 Ry

     iteration #  6     ecut=    60.00 Ry     beta= 0.50
     Davidson diagonalization with overlap

---- Real-time Memory Report at c_bands before calling an iterative solver
           201 MiB given to the printing process from OS
             0 MiB allocation reported by mallinfo(arena+hblkhd)
         23136 MiB available memory on the node where the printing process lives
------------------
     ethr =  1.41E-07,  avg # of iterations =  3.4

     negative rho (up, down):  1.688E-04 0.000E+00


     -----------------------------------------------
     Non-local corr. energy    =       0.20498902 Ry
     -----------------------------------------------


     total cpu time spent up to now is       39.0 secs

     total energy              =    -211.01477312 Ry
     estimated scf accuracy    <       0.00003494 Ry

     iteration #  7     ecut=    60.00 Ry     beta= 0.50
     Davidson diagonalization with overlap

---- Real-time Memory Report at c_bands before calling an iterative solver
           201 MiB given to the printing process from OS
             0 MiB allocation reported by mallinfo(arena+hblkhd)
         23132 MiB available memory on the node where the printing process lives
------------------
     ethr =  1.41E-07,  avg # of iterations =  1.0

     negative rho (up, down):  1.689E-04 0.000E+00


     -----------------------------------------------
     Non-local corr. energy    =       0.20499201 Ry
     -----------------------------------------------


     total cpu time spent up to now is       42.5 secs

     total energy              =    -211.01477890 Ry
     estimated scf accuracy    <       0.00000045 Ry

     iteration #  8     ecut=    60.00 Ry     beta= 0.50
     Davidson diagonalization with overlap

---- Real-time Memory Report at c_bands before calling an iterative solver
           201 MiB given to the printing process from OS
             0 MiB allocation reported by mallinfo(arena+hblkhd)
         23129 MiB available memory on the node where the printing process lives
------------------
     ethr =  2.52E-09,  avg # of iterations =  2.0

     negative rho (up, down):  1.689E-04 0.000E+00


     -----------------------------------------------
     Non-local corr. energy    =       0.20499554 Ry
     -----------------------------------------------


     total cpu time spent up to now is       46.4 secs

     total energy              =    -211.01477899 Ry
     estimated scf accuracy    <       0.00000003 Ry

     iteration #  9     ecut=    60.00 Ry     beta= 0.50
     Davidson diagonalization with overlap

---- Real-time Memory Report at c_bands before calling an iterative solver
           202 MiB given to the printing process from OS
             0 MiB allocation reported by mallinfo(arena+hblkhd)
         23125 MiB available memory on the node where the printing process lives
------------------
     ethr =  1.83E-10,  avg # of iterations =  2.3

     negative rho (up, down):  1.690E-04 0.000E+00


     -----------------------------------------------
     Non-local corr. energy    =       0.20499581 Ry
     -----------------------------------------------


     total cpu time spent up to now is       50.5 secs

     End of self-consistent calculation

          k = 0.0000 0.0000 0.0000 ( 14595 PWs)   bands (ev):

   -16.2810 -16.1693  -8.3525  -6.2735  -4.2548  -4.2401  -4.2041  -4.1897
    -3.3591   0.4101   1.2289   2.3820   2.4714   2.5950   2.6201   3.2866
     3.3870   3.4134   3.6114   4.2510   4.7442   5.9425   6.1562   6.1872
     6.5341   7.1786   7.9698   7.9944   8.2277   8.2472

     occupation numbers 
     1.0000   1.0000   1.0000   1.0000   1.0000   1.0000   1.0000   1.0000
     1.0000   0.0000   0.0000   0.0000   0.0000   0.0000   0.0000   0.0000
     0.0000   0.0000   0.0000   0.0000   0.0000   0.0000   0.0000   0.0000
     0.0000   0.0000   0.0000   0.0000   0.0000   0.0000

          k = 0.0444-0.0768 0.0000 ( 14671 PWs)   bands (ev):

   -16.2275 -16.1179  -8.2965  -6.2328  -4.6394  -4.5683  -4.3220  -4.2672
    -3.2800   0.7228   1.5362   2.2378   2.4757   2.6200   2.7411   3.2158
     3.3776   3.6085   3.7175   4.2461   4.7881   5.6289   5.9174   6.0186
     6.6678   7.1805   7.6446   7.8560   8.5235   8.7242

     occupation numbers 
     1.0000   1.0000   1.0000   1.0000   1.0000   1.0000   1.0000   1.0000
     1.0000   0.0000   0.0000   0.0000   0.0000   0.0000   0.0000   0.0000
     0.0000   0.0000   0.0000   0.0000   0.0000   0.0000   0.0000   0.0000
     0.0000   0.0000   0.0000   0.0000   0.0000   0.0000

          k = 0.0889-0.1536 0.0000 ( 14677 PWs)   bands (ev):

   -16.0727 -15.9691  -8.1482  -6.1719  -5.4477  -5.3378  -4.5238  -4.4591
    -3.1781   1.2390   1.2921   2.4562   2.5442   2.8463   3.0015   3.0689
     3.6304   4.0225   4.1601   4.2990   4.5812   5.3034   5.8951   5.9105
     6.4731   7.4320   7.4417   7.5865   9.0647   9.2064

     occupation numbers 
     1.0000   1.0000   1.0000   1.0000   1.0000   1.0000   1.0000   1.0000
     1.0000   0.0000   0.0000   0.0000   0.0000   0.0000   0.0000   0.0000
     0.0000   0.0000   0.0000   0.0000   0.0000   0.0000   0.0000   0.0000
     0.0000   0.0000   0.0000   0.0000   0.0000   0.0000

          k = 0.1333-0.2304 0.0000 ( 14626 PWs)   bands (ev):

   -15.8347 -15.7414  -8.0095  -6.6281  -6.2317  -5.6270  -4.7780  -4.7024
    -3.1321   0.4773   1.2835   2.4363   2.4661   3.0601   3.1212   3.3026
     4.0815   4.5535   4.8324   4.8720   4.8984   5.5408   6.0941   6.2275
     6.2689   7.4467   7.5012   7.9013   9.0765   9.2716

     occupation numbers 
     1.0000   1.0000   1.0000   1.0000   1.0000   1.0000   1.0000   1.0000
     1.0000   0.0000   0.0000   0.0000   0.0000   0.0000   0.0000   0.0000
     0.0000   0.0000   0.0000   0.0000   0.0000   0.0000   0.0000   0.0000
     0.0000   0.0000   0.0000   0.0000   0.0000   0.0000

          k = 0.1777-0.3072 0.0000 ( 14572 PWs)   bands (ev):

   -15.5499 -15.4703  -8.1819  -7.4690  -6.5253  -5.4073  -5.0183  -4.9339
    -3.2195  -0.2591   0.9626   1.9780   1.9980   3.0314   3.5058   3.6936
     4.6887   5.1521   5.4094   5.4283   5.9290   6.0721   6.5612   6.5672
     7.2119   7.7385   7.8150   8.0471   8.9147   9.3793

     occupation numbers 
     1.0000   1.0000   1.0000   1.0000   1.0000   1.0000   1.0000   1.0000
     1.0000   0.0000   0.0000   0.0000   0.0000   0.0000   0.0000   0.0000
     0.0000   0.0000   0.0000   0.0000   0.0000   0.0000   0.0000   0.0000
     0.0000   0.0000   0.0000   0.0000   0.0000   0.0000

          k = 0.2222-0.3839 0.0000 ( 14621 PWs)   bands (ev):

   -15.2793 -15.2149  -8.6511  -8.1601  -6.2670  -5.1995  -5.1475  -5.1091
    -3.5085  -0.7478   0.6623   1.4377   1.6329   2.8857   3.9590   4.2635
     5.3168   5.5780   5.7174   5.8760   6.5205   6.5488   7.1912   7.3529
     7.9847   8.3812   8.4825   8.8602   8.9007   8.9199

     occupation numbers 
     1.0000   1.0000   1.0000   1.0000   1.0000   1.0000   1.0000   1.0000
     1.0000   0.0000   0.0000   0.0000   0.0000   0.0000   0.0000   0.0000
     0.0000   0.0000   0.0000   0.0000   0.0000   0.0000   0.0000   0.0000
     0.0000   0.0000   0.0000   0.0000   0.0000   0.0000

          k = 0.2666-0.4607 0.0000 ( 14608 PWs)   bands (ev):

   -15.1078 -15.0543  -8.9852  -8.5482  -5.9244  -5.2958  -5.2027  -4.9769
    -3.8520  -0.9592   0.4979   1.0917   1.4800   2.7932   4.0338   5.1565
     5.5753   5.6174   6.1627   6.4503   6.6519   6.8745   7.1945   7.5766
     7.9664   8.2064   8.4881   8.6821   9.3541   9.4789

     occupation numbers 
     1.0000   1.0000   1.0000   1.0000   1.0000   1.0000   1.0000   1.0000
     1.0000   0.0000   0.0000   0.0000   0.0000   0.0000   0.0000   0.0000
     0.0000   0.0000   0.0000   0.0000   0.0000   0.0000   0.0000   0.0000
     0.0000   0.0000   0.0000   0.0000   0.0000   0.0000

          k = 0.0889 0.0000 0.0000 ( 14663 PWs)   bands (ev):

   -16.2273 -16.1176  -8.2961  -6.2324  -4.6287  -4.5577  -4.3340  -4.2790
    -3.2795   0.7204   1.5282   2.2556   2.4748   2.6252   2.7229   3.2323
     3.3781   3.5900   3.7206   4.2469   4.7902   5.6499   5.9187   5.9944
     6.6682   7.1792   7.6578   7.8360   8.5304   8.5662

     occupation numbers 
     1.0000   1.0000   1.0000   1.0000   1.0000   1.0000   1.0000   1.0000
     1.0000   0.0000   0.0000   0.0000   0.0000   0.0000   0.0000   0.0000
     0.0000   0.0000   0.0000   0.0000   0.0000   0.0000   0.0000   0.0000
     0.0000   0.0000   0.0000   0.0000   0.0000   0.0000

          k = 0.1333-0.0768 0.0000 ( 14661 PWs)   bands (ev):

   -16.1228 -16.0172  -8.1928  -6.1744  -5.1891  -5.1052  -4.5022  -4.4356
    -3.1992   1.1629   1.7571   1.9714   2.5906   2.7119   3.0299   3.0523
     3.5545   3.6389   4.1265   4.3537   4.7330   5.2770   5.7176   5.9121
     6.8174   7.2856   7.4848   7.5580   8.7738   9.0609

     occupation numbers 
     1.0000   1.0000   1.0000   1.0000   1.0000   1.0000   1.0000   1.0000
     1.0000   0.0000   0.0000   0.0000   0.0000   0.0000   0.0000   0.0000
     0.0000   0.0000   0.0000   0.0000   0.0000   0.0000   0.0000   0.0000
     0.0000   0.0000   0.0000   0.0000   0.0000   0.0000

          k = 0.1777-0.1536 0.0000 ( 14639 PWs)   bands (ev):

   -15.9258 -15.8283  -8.0383  -6.3368  -5.9295  -5.6100  -4.7960  -4.7101
    -3.1300   1.0388   1.5748   2.3730   2.5233   2.8225   3.0763   3.3514
     3.7394   3.9211   4.4522   4.4664   5.1151   5.3424   6.0262   6.0389
     6.7001   7.0957   7.6543   7.6809   9.0635   9.4204

     occupation numbers 
     1.0000   1.0000   1.0000   1.0000   1.0000   1.0000   1.0000   1.0000
     1.0000   0.0000   0.0000   0.0000   0.0000   0.0000   0.0000   0.0000
     0.0000   0.0000   0.0000   0.0000   0.0000   0.0000   0.0000   0.0000
     0.0000   0.0000   0.0000   0.0000   0.0000   0.0000

          k = 0.2222-0.2304 0.0000 ( 14583 PWs)   bands (ev):

   -15.6626 -15.5772  -8.0308  -7.0805  -6.4441  -5.5028  -5.1064  -5.0029
    -3.1446   0.2561   1.4481   2.2669   2.2787   2.7221   3.2487   3.7313
     4.4678   4.4851   4.8874   4.9655   5.6375   5.6989   6.3787   6.3931
     7.1923   7.2310   8.0405   8.1577   8.9313   9.5743

     occupation numbers 
     1.0000   1.0000   1.0000   1.0000   1.0000   1.0000   1.0000   1.0000
     1.0000   0.0000   0.0000   0.0000   0.0000   0.0000   0.0000   0.0000
     0.0000   0.0000   0.0000   0.0000   0.0000   0.0000   0.0000   0.0000
     0.0000   0.0000   0.0000   0.0000   0.0000   0.0000

          k = 0.2666-0.3072 0.0000 ( 14597 PWs)   bands (ev):

   -15.3808 -15.3103  -8.3954  -7.8329  -6.3922  -5.3571  -5.3047  -5.1908
    -3.3295  -0.3758   1.1395   1.7343   1.9615   2.5296   3.9026   4.1194
     5.1169   5.1238   5.5474   5.5924   5.9927   6.1758   6.8373   6.8831
     7.8084   7.9993   8.6702   8.6847   9.0050   9.3068

     occupation numbers 
     1.0000   1.0000   1.0000   1.0000   1.0000   1.0000   1.0000   1.0000
     1.0000   0.0000   0.0000   0.0000   0.0000   0.0000   0.0000   0.0000
     0.0000   0.0000   0.0000   0.0000   0.0000   0.0000   0.0000   0.0000
     0.0000   0.0000   0.0000   0.0000   0.0000   0.0000

          k = 0.3111-0.3839 0.0000 ( 14611 PWs)   bands (ev):

   -15.1540 -15.0971  -8.8164  -8.3625  -6.0682  -5.4910  -5.4274  -5.0068
    -3.6742  -0.7356   0.9128   1.2850   1.7573   2.4320   4.2274   4.7494
     5.0967   5.6351   6.1472   6.3293   6.6828   6.7407   7.0994   7.5941
     8.2213   8.2485   8.5224   8.6018   8.7584   9.1899

     occupation numbers 
     1.0000   1.0000   1.0000   1.0000   1.0000   1.0000   1.0000   1.0000
     1.0000   0.0000   0.0000   0.0000   0.0000   0.0000   0.0000   0.0000
     0.0000   0.0000   0.0000   0.0000   0.0000   0.0000   0.0000   0.0000
     0.0000   0.0000   0.0000   0.0000   0.0000   0.0000

          k =-0.2222 0.5375 0.0000 ( 14616 PWs)   bands (ev):

   -15.0653 -15.0143  -8.9858  -8.5537  -5.9117  -5.4925  -5.4821  -4.9198
    -3.8867  -0.8422   0.8307   1.1171   1.6917   2.4133   4.1844   5.0296
     5.5632   5.8901   5.9768   6.7609   6.9200   7.1361   7.3110   7.6427
     7.8156   7.8544   8.5292   8.8124   9.2326   9.2801

     occupation numbers 
     1.0000   1.0000   1.0000   1.0000   1.0000   1.0000   1.0000   1.0000
     1.0000   0.0000   0.0000   0.0000   0.0000   0.0000   0.0000   0.0000
     0.0000   0.0000   0.0000   0.0000   0.0000   0.0000   0.0000   0.0000
     0.0000   0.0000   0.0000   0.0000   0.0000   0.0000

          k =-0.1777 0.4607 0.0000 ( 14603 PWs)   bands (ev):

   -15.1548 -15.0979  -8.8151  -8.3608  -6.0705  -5.4914  -5.4294  -5.0073
    -3.6738  -0.7342   0.9150   1.2862   1.7588   2.4319   4.2255   4.7473
     5.0959   5.6353   6.1459   6.3310   6.6942   6.7442   7.1096   7.5987
     8.2309   8.2608   8.5357   8.6096   8.7632   9.1972

     occupation numbers 
     1.0000   1.0000   1.0000   1.0000   1.0000   1.0000   1.0000   1.0000
     1.0000   0.0000   0.0000   0.0000   0.0000   0.0000   0.0000   0.0000
     0.0000   0.0000   0.0000   0.0000   0.0000   0.0000   0.0000   0.0000
     0.0000   0.0000   0.0000   0.0000   0.0000   0.0000

          k =-0.1333 0.3839 0.0000 ( 14586 PWs)   bands (ev):

   -15.3822 -15.3116  -8.3940  -7.8302  -6.3931  -5.3595  -5.3074  -5.1921
    -3.3296  -0.3724   1.1433   1.7362   1.9627   2.5307   3.9023   4.1176
     5.1148   5.1305   5.5481   5.5963   6.0214   6.1910   6.8389   6.8849
     7.8045   8.0024   8.6428   8.6801   8.9997   9.2918

     occupation numbers 
     1.0000   1.0000   1.0000   1.0000   1.0000   1.0000   1.0000   1.0000
     1.0000   0.0000   0.0000   0.0000   0.0000   0.0000   0.0000   0.0000
     0.0000   0.0000   0.0000   0.0000   0.0000   0.0000   0.0000   0.0000
     0.0000   0.0000   0.0000   0.0000   0.0000   0.0000

          k =-0.0889 0.3072 0.0000 ( 14588 PWs)   bands (ev):

   -15.6639 -15.5786  -8.0313  -7.0783  -6.4426  -5.5035  -5.1092  -5.0057
    -3.1456   0.2611   1.4522   2.2644   2.2817   2.7309   3.2491   3.7303
     4.4665   4.5130   4.9102   4.9642   5.6363   5.6858   6.3793   6.3908
     7.1693   7.2226   8.0316   8.1534   8.9346   9.6593

     occupation numbers 
     1.0000   1.0000   1.0000   1.0000   1.0000   1.0000   1.0000   1.0000
     1.0000   0.0000   0.0000   0.0000   0.0000   0.0000   0.0000   0.0000
     0.0000   0.0000   0.0000   0.0000   0.0000   0.0000   0.0000   0.0000
     0.0000   0.0000   0.0000   0.0000   0.0000   0.0000

          k =-0.0444 0.2304 0.0000 ( 14642 PWs)   bands (ev):

   -15.9269 -15.8295  -8.0399  -6.3376  -5.9289  -5.6100  -4.7959  -4.7098
    -3.1311   1.0424   1.5797   2.3856   2.5286   2.8270   3.0758   3.3461
     3.7567   3.9200   4.4565   4.4647   5.0967   5.3389   6.0116   6.0375
     6.7103   7.0975   7.6498   7.6809   9.0654   9.4210

     occupation numbers 
     1.0000   1.0000   1.0000   1.0000   1.0000   1.0000   1.0000   1.0000
     1.0000   0.0000   0.0000   0.0000   0.0000   0.0000   0.0000   0.0000
     0.0000   0.0000   0.0000   0.0000   0.0000   0.0000   0.0000   0.0000
     0.0000   0.0000   0.0000   0.0000   0.0000   0.0000

          k = 0.0000 0.1536 0.0000 ( 14663 PWs)   bands (ev):

   -16.1235 -16.0180  -8.1939  -6.1756  -5.1948  -5.1105  -4.4948  -4.4283
    -3.2000   1.1693   1.7555   1.9896   2.5918   2.7064   3.0258   3.0491
     3.5539   3.6451   4.1220   4.3512   4.7286   5.2756   5.7153   5.9100
     6.8276   7.2893   7.4897   7.5577   8.7886   9.0610

     occupation numbers 
     1.0000   1.0000   1.0000   1.0000   1.0000   1.0000   1.0000   1.0000
     1.0000   0.0000   0.0000   0.0000   0.0000   0.0000   0.0000   0.0000
     0.0000   0.0000   0.0000   0.0000   0.0000   0.0000   0.0000   0.0000
     0.0000   0.0000   0.0000   0.0000   0.0000   0.0000

          k = 0.1777 0.0000 0.0000 ( 14691 PWs)   bands (ev):

   -16.0717 -15.9681  -8.1465  -6.1694  -5.4378  -5.3292  -4.5380  -4.4729
    -3.1769   1.2288   1.2837   2.4656   2.5449   2.8532   2.9839   3.0805
     3.6322   4.0316   4.1447   4.3014   4.5947   5.3088   5.8717   5.9145
     6.4694   7.4408   7.4428   7.5644   9.0651   9.2077

     occupation numbers 
     1.0000   1.0000   1.0000   1.0000   1.0000   1.0000   1.0000   1.0000
     1.0000   0.0000   0.0000   0.0000   0.0000   0.0000   0.0000   0.0000
     0.0000   0.0000   0.0000   0.0000   0.0000   0.0000   0.0000   0.0000
     0.0000   0.0000   0.0000   0.0000   0.0000   0.0000

          k = 0.2222-0.0768 0.0000 ( 14634 PWs)   bands (ev):

   -15.9250 -15.8276  -8.0368  -6.3326  -5.9236  -5.6072  -4.8058  -4.7195
    -3.1290   1.0354   1.5633   2.3724   2.5297   2.8237   3.0808   3.3496
     3.7455   3.9220   4.4582   4.4676   5.1093   5.3399   6.0186   6.0419
     6.6989   7.0897   7.6511   7.6812   9.0584   9.4186

     occupation numbers 
     1.0000   1.0000   1.0000   1.0000   1.0000   1.0000   1.0000   1.0000
     1.0000   0.0000   0.0000   0.0000   0.0000   0.0000   0.0000   0.0000
     0.0000   0.0000   0.0000   0.0000   0.0000   0.0000   0.0000   0.0000
     0.0000   0.0000   0.0000   0.0000   0.0000   0.0000

          k = 0.2666-0.1536 0.0000 ( 14611 PWs)   bands (ev):

   -15.7015 -15.6142  -7.9834  -6.8840  -6.3214  -5.5190  -5.2689  -5.1432
    -3.1169   0.7242   1.9553   1.9740   2.4954   3.0386   3.1364   3.6823
     3.7619   3.9882   4.4301   4.8870   5.6037   5.7650   6.3407   6.4598
     7.1164   7.2393   8.0783   8.0957   8.8971   9.9162

     occupation numbers 
     1.0000   1.0000   1.0000   1.0000   1.0000   1.0000   1.0000   1.0000
     1.0000   0.0000   0.0000   0.0000   0.0000   0.0000   0.0000   0.0000
     0.0000   0.0000   0.0000   0.0000   0.0000   0.0000   0.0000   0.0000
     0.0000   0.0000   0.0000   0.0000   0.0000   0.0000

          k = 0.3111-0.2304 0.0000 ( 14595 PWs)   bands (ev):

   -15.4370 -15.3630  -8.1882  -7.5278  -6.3631  -5.7130  -5.5725  -5.2776
    -3.2168   0.1513   1.7326   1.8223   2.2713   3.0116   3.5078   4.1993
     4.4113   4.4607   5.0268   5.2195   5.5589   5.8920   6.6701   6.7771
     7.8496   8.0801   8.7134   8.8617   9.0369   9.6814

     occupation numbers 
     1.0000   1.0000   1.0000   1.0000   1.0000   1.0000   1.0000   1.0000
     1.0000   0.0000   0.0000   0.0000   0.0000   0.0000   0.0000   0.0000
     0.0000   0.0000   0.0000   0.0000   0.0000   0.0000   0.0000   0.0000
     0.0000   0.0000   0.0000   0.0000   0.0000   0.0000

          k = 0.3555-0.3072 0.0000 ( 14597 PWs)   bands (ev):

   -15.1896 -15.1298  -8.5602  -8.0707  -6.2271  -5.8853  -5.8764  -5.0369
    -3.4739  -0.3761   1.4941   1.7248   1.9524   2.6629   4.2828   4.5263
     4.6248   5.5479   5.6719   5.7754   6.0346   6.3374   7.1817   7.3086
     8.0995   8.1653   8.6700   8.7846   9.2930   9.6455

     occupation numbers 
     1.0000   1.0000   1.0000   1.0000   1.0000   1.0000   1.0000   1.0000
     1.0000   0.0000   0.0000   0.0000   0.0000   0.0000   0.0000   0.0000
     0.0000   0.0000   0.0000   0.0000   0.0000   0.0000   0.0000   0.0000
     0.0000   0.0000   0.0000   0.0000   0.0000   0.0000

          k =-0.1777 0.6143 0.0000 ( 14594 PWs)   bands (ev):

   -15.0355 -14.9856  -8.8213  -8.3830  -6.3196  -6.0486  -5.6192  -4.8826
    -3.7721  -0.6527   1.2550   1.7931   1.7963   2.4734   4.2956   4.4444
     5.3718   6.1560   6.3240   6.5227   6.8850   6.9286   7.5834   7.6976
     7.9832   8.0048   8.2164   8.7121   8.7584   9.0546

     occupation numbers 
     1.0000   1.0000   1.0000   1.0000   1.0000   1.0000   1.0000   1.0000
     1.0000   0.0000   0.0000   0.0000   0.0000   0.0000   0.0000   0.0000
     0.0000   0.0000   0.0000   0.0000   0.0000   0.0000   0.0000   0.0000
     0.0000   0.0000   0.0000   0.0000   0.0000   0.0000

          k =-0.1333 0.5375 0.0000 ( 14608 PWs)   bands (ev):

   -15.0363 -14.9864  -8.8200  -8.3813  -6.3214  -6.0499  -5.6199  -4.8834
    -3.7714  -0.6517   1.2560   1.7925   1.7980   2.4756   4.2949   4.4437
     5.3702   6.1537   6.3298   6.5415   6.8781   6.9389   7.5861   7.7016
     7.9863   8.0113   8.2315   8.7117   8.7639   9.0450

     occupation numbers 
     1.0000   1.0000   1.0000   1.0000   1.0000   1.0000   1.0000   1.0000
     1.0000   0.0000   0.0000   0.0000   0.0000   0.0000   0.0000   0.0000
     0.0000   0.0000   0.0000   0.0000   0.0000   0.0000   0.0000   0.0000
     0.0000   0.0000   0.0000   0.0000   0.0000   0.0000

          k =-0.0889 0.4607 0.0000 ( 14588 PWs)   bands (ev):

   -15.1918 -15.1319  -8.5576  -8.0667  -6.2309  -5.8886  -5.8775  -5.0387
    -3.4737  -0.3722   1.4961   1.7228   1.9577   2.6693   4.2869   4.5234
     4.6222   5.5674   5.6887   5.8033   6.0325   6.3378   7.1788   7.3035
     8.1021   8.1660   8.6715   8.7860   9.2969   9.6463

     occupation numbers 
     1.0000   1.0000   1.0000   1.0000   1.0000   1.0000   1.0000   1.0000
     1.0000   0.0000   0.0000   0.0000   0.0000   0.0000   0.0000   0.0000
     0.0000   0.0000   0.0000   0.0000   0.0000   0.0000   0.0000   0.0000
     0.0000   0.0000   0.0000   0.0000   0.0000   0.0000

          k =-0.0444 0.3839 0.0000 ( 14587 PWs)   bands (ev):

   -15.4397 -15.3657  -8.1877  -7.5240  -6.3631  -5.7156  -5.5748  -5.2800
    -3.2183   0.1588   1.7297   1.8239   2.2796   3.0223   3.5177   4.2004
     4.4283   4.4913   5.0220   5.2212   5.5577   5.8920   6.6679   6.7739
     7.8388   8.0747   8.6947   8.8468   9.0233   9.6898

     occupation numbers 
     1.0000   1.0000   1.0000   1.0000   1.0000   1.0000   1.0000   1.0000
     1.0000   0.0000   0.0000   0.0000   0.0000   0.0000   0.0000   0.0000
     0.0000   0.0000   0.0000   0.0000   0.0000   0.0000   0.0000   0.0000
     0.0000   0.0000   0.0000   0.0000   0.0000   0.0000

          k = 0.0000 0.3072 0.0000 ( 14617 PWs)   bands (ev):

   -15.7040 -15.6167  -7.9865  -6.8842  -6.3210  -5.5204  -5.2671  -5.1416
    -3.1193   0.7323   1.9571   1.9813   2.5071   3.0401   3.1567   3.6841
     3.7767   3.9956   4.4265   4.8835   5.5968   5.7613   6.3387   6.4599
     7.1048   7.2238   8.0710   8.0899   8.8965   9.9600

     occupation numbers 
     1.0000   1.0000   1.0000   1.0000   1.0000   1.0000   1.0000   1.0000
     1.0000   0.0000   0.0000   0.0000   0.0000   0.0000   0.0000   0.0000
     0.0000   0.0000   0.0000   0.0000   0.0000   0.0000   0.0000   0.0000
     0.0000   0.0000   0.0000   0.0000   0.0000   0.0000

          k = 0.2666 0.0000 0.0000 ( 14626 PWs)   bands (ev):

   -15.8325 -15.7392  -8.0049  -6.6197  -6.2243  -5.6243  -4.7948  -4.7187
    -3.1292   0.4702   1.2634   2.4395   2.4769   3.0645   3.1014   3.3051
     4.0844   4.5590   4.8430   4.8739   4.8951   5.5438   6.0998   6.2278
     6.2510   7.4248   7.5057   7.9042   9.0776   9.2680

     occupation numbers 
     1.0000   1.0000   1.0000   1.0000   1.0000   1.0000   1.0000   1.0000
     1.0000   0.0000   0.0000   0.0000   0.0000   0.0000   0.0000   0.0000
     0.0000   0.0000   0.0000   0.0000   0.0000   0.0000   0.0000   0.0000
     0.0000   0.0000   0.0000   0.0000   0.0000   0.0000

          k = 0.3111-0.0768 0.0000 ( 14597 PWs)   bands (ev):

   -15.6606 -15.5753  -8.0254  -7.0728  -6.4388  -5.5007  -5.1220  -5.0179
    -3.1416   0.2520   1.4265   2.2629   2.2907   2.7095   3.2529   3.7310
     4.4700   4.4982   4.9018   4.9678   5.6373   5.6917   6.3815   6.3960
     7.1816   7.2244   8.0346   8.1554   8.9307   9.5717

     occupation numbers 
     1.0000   1.0000   1.0000   1.0000   1.0000   1.0000   1.0000   1.0000
     1.0000   0.0000   0.0000   0.0000   0.0000   0.0000   0.0000   0.0000
     0.0000   0.0000   0.0000   0.0000   0.0000   0.0000   0.0000   0.0000
     0.0000   0.0000   0.0000   0.0000   0.0000   0.0000

          k = 0.3555-0.1536 0.0000 ( 14593 PWs)   bands (ev):

   -15.4357 -15.3618  -8.1844  -7.5234  -6.3603  -5.7221  -5.5802  -5.2771
    -3.2145   0.1498   1.7264   1.8168   2.2628   2.9947   3.5169   4.2018
     4.4162   4.4796   5.0283   5.2198   5.5608   5.8938   6.6715   6.7782
     7.8493   8.0734   8.7121   8.8612   9.0361   9.6779

     occupation numbers 
     1.0000   1.0000   1.0000   1.0000   1.0000   1.0000   1.0000   1.0000
     1.0000   0.0000   0.0000   0.0000   0.0000   0.0000   0.0000   0.0000
     0.0000   0.0000   0.0000   0.0000   0.0000   0.0000   0.0000   0.0000
     0.0000   0.0000   0.0000   0.0000   0.0000   0.0000

          k = 0.3999-0.2304 0.0000 ( 14594 PWs)   bands (ev):

   -15.2021 -15.1412  -8.4162  -7.8958  -6.3422  -6.1414  -6.0324  -5.0493
    -3.3859  -0.1942   1.4217   1.6652   2.6772   3.6385   3.8853   4.4021
     4.5660   4.6460   5.0399   5.6342   6.0097   6.2052   7.1620   7.2380
     7.8611   8.3009   9.2354   9.2715   9.6293   9.6368

     occupation numbers 
     1.0000   1.0000   1.0000   1.0000   1.0000   1.0000   1.0000   1.0000
     1.0000   0.0000   0.0000   0.0000   0.0000   0.0000   0.0000   0.0000
     0.0000   0.0000   0.0000   0.0000   0.0000   0.0000   0.0000   0.0000
     0.0000   0.0000   0.0000   0.0000   0.0000   0.0000

          k =-0.1333 0.6911 0.0000 ( 14606 PWs)   bands (ev):

   -15.0204 -14.9708  -8.6051  -8.1466  -6.7741  -6.5417  -5.6450  -4.8661
    -3.6324  -0.6048   1.4341   1.5173   2.6031   3.6330   4.1328   4.7173
     4.9271   5.3749   5.8993   6.1223   6.7048   6.8838   7.3345   7.4581
     8.1431   8.3233   8.7534   8.8400   9.1625   9.3388

     occupation numbers 
     1.0000   1.0000   1.0000   1.0000   1.0000   1.0000   1.0000   1.0000
     1.0000   0.0000   0.0000   0.0000   0.0000   0.0000   0.0000   0.0000
     0.0000   0.0000   0.0000   0.0000   0.0000   0.0000   0.0000   0.0000
     0.0000   0.0000   0.0000   0.0000   0.0000   0.0000

          k =-0.0889 0.6143 0.0000 ( 14608 PWs)   bands (ev):

   -14.9517 -14.9066  -8.6764  -8.2353  -6.9292  -6.6847  -5.4465  -4.7962
    -3.7775  -0.7695   1.4666   1.4774   2.5171   3.5770   4.0273   4.6654
     5.8179   5.9478   6.0141   6.6231   7.3276   7.4166   7.5333   7.6519
     7.8352   8.1737   8.2800   8.3659   8.3906   9.1289

     occupation numbers 
     1.0000   1.0000   1.0000   1.0000   1.0000   1.0000   1.0000   1.0000
     1.0000   0.0000   0.0000   0.0000   0.0000   0.0000   0.0000   0.0000
     0.0000   0.0000   0.0000   0.0000   0.0000   0.0000   0.0000   0.0000
     0.0000   0.0000   0.0000   0.0000   0.0000   0.0000

          k =-0.0444 0.5375 0.0000 ( 14593 PWs)   bands (ev):

   -15.0227 -14.9730  -8.6032  -8.1433  -6.7749  -6.5430  -5.6479  -4.8681
    -3.6321  -0.6010   1.4334   1.5178   2.6082   3.6406   4.1346   4.7162
     4.9431   5.4086   5.9129   6.1190   6.6960   6.8777   7.3339   7.4538
     8.1380   8.3280   8.7597   8.8248   9.1617   9.3344

     occupation numbers 
     1.0000   1.0000   1.0000   1.0000   1.0000   1.0000   1.0000   1.0000
     1.0000   0.0000   0.0000   0.0000   0.0000   0.0000   0.0000   0.0000
     0.0000   0.0000   0.0000   0.0000   0.0000   0.0000   0.0000   0.0000
     0.0000   0.0000   0.0000   0.0000   0.0000   0.0000

          k = 0.0000 0.4607 0.0000 ( 14600 PWs)   bands (ev):

   -15.2058 -15.1448  -8.4156  -7.8927  -6.3414  -6.1409  -6.0351  -5.0524
    -3.3878  -0.1867   1.4217   1.6646   2.6936   3.6615   3.8972   4.4272
     4.5752   4.6414   5.0472   5.6282   6.0060   6.1977   7.1569   7.2323
     7.8593   8.2917   9.2352   9.2646   9.6289   9.6446

     occupation numbers 
     1.0000   1.0000   1.0000   1.0000   1.0000   1.0000   1.0000   1.0000
     1.0000   0.0000   0.0000   0.0000   0.0000   0.0000   0.0000   0.0000
     0.0000   0.0000   0.0000   0.0000   0.0000   0.0000   0.0000   0.0000
     0.0000   0.0000   0.0000   0.0000   0.0000   0.0000

          k = 0.3555 0.0000 0.0000 ( 14592 PWs)   bands (ev):

   -15.5462 -15.4667  -8.1739  -7.4611  -6.5211  -5.4042  -5.0372  -4.9523
    -3.2142  -0.2680   0.9378   1.9750   2.0106   3.0072   3.5112   3.6940
     4.6927   5.1577   5.4091   5.4129   5.9371   6.0842   6.5678   6.5771
     7.2033   7.7399   7.8003   8.0489   8.9189   9.3827

     occupation numbers 
     1.0000   1.0000   1.0000   1.0000   1.0000   1.0000   1.0000   1.0000
     1.0000   0.0000   0.0000   0.0000   0.0000   0.0000   0.0000   0.0000
     0.0000   0.0000   0.0000   0.0000   0.0000   0.0000   0.0000   0.0000
     0.0000   0.0000   0.0000   0.0000   0.0000   0.0000

          k = 0.3999-0.0768 0.0000 ( 14581 PWs)   bands (ev):

   -15.3773 -15.3068  -8.3872  -7.8253  -6.3889  -5.3752  -5.3141  -5.1963
    -3.3236  -0.3834   1.1138   1.7463   1.9550   2.5074   3.9089   4.1185
     5.1136   5.1207   5.5537   5.5970   6.0146   6.1874   6.8434   6.8899
     7.8093   7.9937   8.6655   8.6858   9.0024   9.3132

     occupation numbers 
     1.0000   1.0000   1.0000   1.0000   1.0000   1.0000   1.0000   1.0000
     1.0000   0.0000   0.0000   0.0000   0.0000   0.0000   0.0000   0.0000
     0.0000   0.0000   0.0000   0.0000   0.0000   0.0000   0.0000   0.0000
     0.0000   0.0000   0.0000   0.0000   0.0000   0.0000

          k = 0.4444-0.1536 0.0000 ( 14585 PWs)   bands (ev):

   -15.1868 -15.1270  -8.5537  -8.0649  -6.2319  -5.8980  -5.8820  -5.0347
    -3.4687  -0.3823   1.4976   1.7163   1.9306   2.6392   4.2832   4.5280
     4.6177   5.5633   5.6881   5.7980   6.0401   6.3448   7.1856   7.3088
     8.0952   8.1755   8.6696   8.7917   9.3067   9.6619

     occupation numbers 
     1.0000   1.0000   1.0000   1.0000   1.0000   1.0000   1.0000   1.0000
     1.0000   0.0000   0.0000   0.0000   0.0000   0.0000   0.0000   0.0000
     0.0000   0.0000   0.0000   0.0000   0.0000   0.0000   0.0000   0.0000
     0.0000   0.0000   0.0000   0.0000   0.0000   0.0000

          k =-0.0889 0.7679 0.0000 ( 14598 PWs)   bands (ev):

   -15.0188 -14.9692  -8.6017  -8.1435  -6.7802  -6.5479  -5.6435  -4.8648
    -3.6297  -0.6090   1.4313   1.5225   2.5865   3.6050   4.1099   4.7199
     4.9462   5.4027   5.9150   6.1248   6.7065   6.8872   7.3332   7.4631
     8.1459   8.3340   8.7670   8.8369   9.1729   9.3295

     occupation numbers 
     1.0000   1.0000   1.0000   1.0000   1.0000   1.0000   1.0000   1.0000
     1.0000   0.0000   0.0000   0.0000   0.0000   0.0000   0.0000   0.0000
     0.0000   0.0000   0.0000   0.0000   0.0000   0.0000   0.0000   0.0000
     0.0000   0.0000   0.0000   0.0000   0.0000   0.0000

          k =-0.0444 0.6911 0.0000 ( 14591 PWs)   bands (ev):

   -14.9201 -14.8767  -8.5540  -8.0990  -7.2304  -7.0008  -5.3744  -4.7642
    -3.7542  -0.8769   1.3930   1.6549   2.4736   4.5512   4.7252   4.8319
     5.1834   5.2405   6.2258   6.5354   7.0952   7.2818   7.6667   7.9086
     8.0381   8.1080   8.3576   8.3848   8.7103   8.9583

     occupation numbers 
     1.0000   1.0000   1.0000   1.0000   1.0000   1.0000   1.0000   1.0000
     1.0000   0.0000   0.0000   0.0000   0.0000   0.0000   0.0000   0.0000
     0.0000   0.0000   0.0000   0.0000   0.0000   0.0000   0.0000   0.0000
     0.0000   0.0000   0.0000   0.0000   0.0000   0.0000

          k = 0.0000 0.6143 0.0000 ( 14602 PWs)   bands (ev):

   -14.9216 -14.8781  -8.5543  -8.0985  -7.2286  -6.9994  -5.3767  -4.7654
    -3.7546  -0.8737   1.3931   1.6521   2.4796   4.5726   4.7471   4.8323
     5.1853   5.2395   6.2146   6.5413   7.0930   7.2762   7.6493   7.9090
     8.0145   8.0914   8.3547   8.3890   8.7153   8.9506

     occupation numbers 
     1.0000   1.0000   1.0000   1.0000   1.0000   1.0000   1.0000   1.0000
     1.0000   0.0000   0.0000   0.0000   0.0000   0.0000   0.0000   0.0000
     0.0000   0.0000   0.0000   0.0000   0.0000   0.0000   0.0000   0.0000
     0.0000   0.0000   0.0000   0.0000   0.0000   0.0000

          k = 0.4444 0.0000 0.0000 ( 14620 PWs)   bands (ev):

   -15.2741 -15.2097  -8.6430  -8.1538  -6.2625  -5.2200  -5.1431  -5.1291
    -3.5010  -0.7598   0.6347   1.4499   1.6245   2.8588   3.9599   4.2715
     5.3232   5.5566   5.7239   5.8821   6.5231   6.5486   7.2071   7.3611
     7.9870   8.3968   8.4791   8.8630   8.9104   8.9350

     occupation numbers 
     1.0000   1.0000   1.0000   1.0000   1.0000   1.0000   1.0000   1.0000
     1.0000   0.0000   0.0000   0.0000   0.0000   0.0000   0.0000   0.0000
     0.0000   0.0000   0.0000   0.0000   0.0000   0.0000   0.0000   0.0000
     0.0000   0.0000   0.0000   0.0000   0.0000   0.0000

          k = 0.4888-0.0768 0.0000 ( 14613 PWs)   bands (ev):

   -15.1489 -15.0921  -8.8087  -8.3563  -6.0662  -5.5079  -5.4458  -5.0032
    -3.6665  -0.7473   0.8849   1.2957   1.7454   2.4088   4.2291   4.7569
     5.0776   5.6405   6.1530   6.3353   6.6895   6.7561   7.1086   7.6060
     8.2358   8.2696   8.5314   8.6129   8.7699   9.2066

     occupation numbers 
     1.0000   1.0000   1.0000   1.0000   1.0000   1.0000   1.0000   1.0000
     1.0000   0.0000   0.0000   0.0000   0.0000   0.0000   0.0000   0.0000
     0.0000   0.0000   0.0000   0.0000   0.0000   0.0000   0.0000   0.0000
     0.0000   0.0000   0.0000   0.0000   0.0000   0.0000

          k =-0.0444 0.8447 0.0000 ( 14602 PWs)   bands (ev):

   -15.0311 -14.9813  -8.8150  -8.3780  -6.3318  -6.0626  -5.6171  -4.8791
    -3.7657  -0.6629   1.2626   1.7671   1.7839   2.4459   4.2772   4.4493
     5.3811   6.1592   6.3410   6.5381   6.8913   6.9415   7.5926   7.7111
     7.9882   8.0192   8.2315   8.7163   8.7731   9.0575

     occupation numbers 
     1.0000   1.0000   1.0000   1.0000   1.0000   1.0000   1.0000   1.0000
     1.0000   0.0000   0.0000   0.0000   0.0000   0.0000   0.0000   0.0000
     0.0000   0.0000   0.0000   0.0000   0.0000   0.0000   0.0000   0.0000
     0.0000   0.0000   0.0000   0.0000   0.0000   0.0000

          k = 0.0000 0.7679 0.0000 ( 14608 PWs)   bands (ev):

   -14.9486 -14.9036  -8.6727  -8.2327  -6.9372  -6.6925  -5.4429  -4.7936
    -3.7742  -0.7771   1.4740   1.4745   2.4950   3.5428   4.0004   4.6695
     5.8344   5.9576   6.0241   6.6297   7.3394   7.4241   7.5400   7.6601
     7.8441   8.1829   8.2912   8.3765   8.3995   9.1383

     occupation numbers 
     1.0000   1.0000   1.0000   1.0000   1.0000   1.0000   1.0000   1.0000
     1.0000   0.0000   0.0000   0.0000   0.0000   0.0000   0.0000   0.0000
     0.0000   0.0000   0.0000   0.0000   0.0000   0.0000   0.0000   0.0000
     0.0000   0.0000   0.0000   0.0000   0.0000   0.0000

          k = 0.5332 0.0000 0.0000 ( 14596 PWs)   bands (ev):

   -15.1015 -15.0481  -8.9781  -8.5429  -5.9186  -5.3171  -5.2234  -4.9718
    -3.8439  -0.9733   0.4689   1.1033   1.4688   2.7650   4.0386   5.1672
     5.5514   5.6176   6.1711   6.4576   6.6570   6.8815   7.2011   7.5883
     7.9787   8.2215   8.4980   8.6899   9.3698   9.4060

     occupation numbers 
     1.0000   1.0000   1.0000   1.0000   1.0000   1.0000   1.0000   1.0000
     1.0000   0.0000   0.0000   0.0000   0.0000   0.0000   0.0000   0.0000
     0.0000   0.0000   0.0000   0.0000   0.0000   0.0000   0.0000   0.0000
     0.0000   0.0000   0.0000   0.0000   0.0000   0.0000

          k = 0.0000 0.9215 0.0000 ( 14622 PWs)   bands (ev):

   -15.0592 -15.0083  -8.9791  -8.5488  -5.9124  -5.5051  -5.5002  -4.9153
    -3.8791  -0.8557   0.8021   1.1260   1.6768   2.3903   4.1898   5.0096
     5.5737   5.8883   5.9897   6.7681   6.9186   7.1464   7.3240   7.6559
     7.8222   7.8630   8.5375   8.8271   9.2399   9.2762

     occupation numbers 
     1.0000   1.0000   1.0000   1.0000   1.0000   1.0000   1.0000   1.0000
     1.0000   0.0000   0.0000   0.0000   0.0000   0.0000   0.0000   0.0000
     0.0000   0.0000   0.0000   0.0000   0.0000   0.0000   0.0000   0.0000
     0.0000   0.0000   0.0000   0.0000   0.0000   0.0000

     highest occupied, lowest unoccupied level (ev):    -3.1169   -0.9733

!    total energy              =    -211.01477900 Ry

     total all-electron energy =     -2567.502581 Ry
     estimated scf accuracy    <          1.8E-09 Ry

     The total energy is the sum of the following terms:
     one-electron contribution =    -400.85108227 Ry
     hartree contribution      =     204.29671814 Ry
     xc contribution           =     -15.42555042 Ry
     ewald contribution        =     161.71901412 Ry
     one-center paw contrib.   =    -160.75387856 Ry
      -> PAW hartree energy AE =      11.45677695 Ry
      -> PAW hartree energy PS =     -11.39917888 Ry
      -> PAW xc energy AE      =     -50.21179089 Ry
      -> PAW xc energy PS      =       4.29698136 Ry
      -> total E_H with PAW    =     204.35431621 Ry
      -> total E_XC with PAW   =     -61.34035995 Ry

     convergence has been achieved in   9 iterations

     Writing all to output data dir ./work/Al2S2.save/
 
     init_run     :      4.56s CPU      4.86s WALL (       1 calls)
     electrons    :     39.33s CPU     45.53s WALL (       1 calls)

     Called by init_run:
     wfcinit      :      0.93s CPU      1.15s WALL (       1 calls)
     wfcinit:atom :      0.01s CPU      0.01s WALL (      49 calls)
     wfcinit:wfcr :      0.88s CPU      1.09s WALL (      49 calls)
     potinit      :      3.39s CPU      3.44s WALL (       1 calls)
     hinit0       :      0.11s CPU      0.13s WALL (       1 calls)

     Called by electrons:
     c_bands      :     32.24s CPU     37.37s WALL (      10 calls)
     sum_band     :      5.17s CPU      6.11s WALL (      10 calls)
     v_of_rho     :      3.94s CPU      4.07s WALL (      10 calls)
     v_h          :      0.01s CPU      0.01s WALL (      10 calls)
     v_xc         :      3.94s CPU      4.06s WALL (      10 calls)
     newd         :      0.85s CPU      0.87s WALL (      10 calls)
     PAW_pot      :      0.52s CPU      0.56s WALL (      10 calls)
     mix_rho      :      0.02s CPU      0.02s WALL (      10 calls)
     vdW_kernel   :      3.25s CPU      3.26s WALL (       1 calls)

     Called by c_bands:
     init_us_2    :      0.47s CPU      0.51s WALL (    1029 calls)
     init_us_2:cp :      0.46s CPU      0.50s WALL (    1029 calls)
     cegterg      :     29.88s CPU     34.98s WALL (     490 calls)

     Called by sum_band:
     sum_band:wei :      0.00s CPU      0.00s WALL (      10 calls)
     sum_band:loo :      4.01s CPU      4.91s WALL (      10 calls)
     sum_band:buf :      0.10s CPU      0.12s WALL (     490 calls)
     sum_band:ini :      0.15s CPU      0.17s WALL (     490 calls)
     sum_band:cal :      0.33s CPU      0.41s WALL (     490 calls)
     sum_band:bec :      0.01s CPU      0.01s WALL (     490 calls)
     addusdens    :      1.14s CPU      1.16s WALL (      10 calls)
     addusd:skk   :      0.00s CPU      0.00s WALL (      20 calls)
     addusd:dgemm :      0.79s CPU      0.81s WALL (      20 calls)
     addusd:qvan2 :      0.33s CPU      0.33s WALL (      20 calls)

     Called by *egterg:
     cdiaghg      :      1.41s CPU      1.49s WALL (    2280 calls)
     cegterg:over :      1.50s CPU      1.61s WALL (    1839 calls)
     cegterg:upda :      1.19s CPU      1.21s WALL (    1839 calls)
     cegterg:last :      2.42s CPU      2.46s WALL (    1074 calls)
     h_psi        :     21.63s CPU     26.56s WALL (    2378 calls)
     s_psi        :      1.42s CPU      1.50s WALL (    2378 calls)
     g_psi        :      0.08s CPU      0.08s WALL (    1839 calls)

     Called by h_psi:
     h_psi:calbec :      1.59s CPU      1.92s WALL (    2378 calls)
     vloc_psi     :     17.31s CPU     21.62s WALL (    2378 calls)
     add_vuspsi   :      2.29s CPU      2.57s WALL (    2378 calls)

     General routines
     calbec       :      1.92s CPU      2.32s WALL (    2868 calls)
     fft          :      0.24s CPU      0.32s WALL (     611 calls)
     ffts         :      0.01s CPU      0.01s WALL (      10 calls)
     fftw         :     18.99s CPU     23.74s WALL (   92306 calls)
 
     Parallel routines

     PAW routines
     PAW_pot      :      0.52s CPU      0.56s WALL (      10 calls)
     PAW_symme    :      0.00s CPU      0.00s WALL (      20 calls)
 
     PWSCF        :     44.07s CPU     50.85s WALL

 
   This run was terminated on:  12: 2:45  22Jun2023            

=------------------------------------------------------------------------------=
   JOB DONE.
=------------------------------------------------------------------------------=
