
     Program PWSCF v.7.0 starts on 12Jun2023 at  8:21: 8 

     This program is part of the open-source Quantum ESPRESSO suite
     for quantum simulation of materials; please cite
         "P. Giannozzi et al., J. Phys.:Condens. Matter 21 395502 (2009);
         "P. Giannozzi et al., J. Phys.:Condens. Matter 29 465901 (2017);
         "P. Giannozzi et al., J. Chem. Phys. 152 154105 (2020);
          URL http://www.quantum-espresso.org", 
     in publications or presentations arising from this work. More details at
     http://www.quantum-espresso.org/quote

     Parallel version (MPI), running on    18 processors

     MPI processes distributed on     1 nodes
     R & G space division:  proc/nbgrp/npool/nimage =      18
     36946 MiB available memory on the printing compute node when the environment starts
 
     Waiting for input...
     Reading input from standard input

     Current dimensions of program PWSCF are:
     Max number of different atomic species (ntypx) = 10
     Max number of k-points (npk) =  40000
     Max angular momentum in pseudopotentials (lmaxx) =  4
     Message from routine volume:
     axis vectors are left-handed

     Atomic positions and unit cell read from directory:
     ./work/Al2SO.save/
     Atomic positions from file used, from input discarded
 
     Message from routine volume:
     axis vectors are left-handed
     file Al.pbe-n-kjpaw_psl.1.0.0.UPF: wavefunction(s)  3S 3P renormalized
     file O.pbe-n-kjpaw_psl.1.0.0.UPF: wavefunction(s)  2S 2P renormalized
     file S.pbe-n-kjpaw_psl.1.0.0.UPF: wavefunction(s)  3S 3P renormalized

     IMPORTANT: XC functional enforced from input :
     Exchange-correlation= VDW-DF2-B86R
                           (   1   4  26   0   2   0   0)
     Any further DFT definition will be discarded
     Please, verify this is what you really want


     Subspace diagonalization in iterative solution of the eigenvalue problem:
     a serial algorithm will be used

 
     Parallelization info
     --------------------
     sticks:   dense  smooth     PW     G-vecs:    dense   smooth      PW
     Min          34      34     11                 3294     3294     595
     Max          35      35     12                 3305     3305     614
     Sum         625     625    199                59367    59367   10779
 
     Using Slab Decomposition
 


     bravais-lattice index     =            0
     lattice parameter (alat)  =       6.1344  a.u.
     unit-cell volume          =     947.1615 (a.u.)^3
     number of atoms/cell      =            8
     number of atomic types    =            3
     number of electrons       =        36.00
     number of Kohn-Sham states=           25
     kinetic-energy cutoff     =      60.0000  Ry
     charge density cutoff     =     240.0000  Ry
     Exchange-correlation= VDW-DF2-B86R
                           (   1   4  26   0   2   0   0)

     celldm(1)=   6.134387  celldm(2)=   0.000000  celldm(3)=   0.000000
     celldm(4)=   0.000000  celldm(5)=   0.000000  celldm(6)=   0.000000

     crystal axes: (cart. coord. in units of alat)
               a(1) = (   0.865734   0.500504   0.000000 )  
               a(2) = (   0.865734  -0.500504   0.000000 )  
               a(3) = (   0.000000   0.000000   4.734656 )  

     reciprocal axes: (cart. coord. in units 2 pi/alat)
               b(1) = (  0.577544  0.998993  0.000000 )  
               b(2) = (  0.577544 -0.998993  0.000000 )  
               b(3) = (  0.000000  0.000000  0.211209 )  


     PseudoPot. # 1 for Al read from file:
     /home/mainadmin/research/danu/pseudo/Al.pbe-n-kjpaw_psl.1.0.0.UPF
     MD5 check sum: 502b6b27b9c6270cab5dd1084b96fa6d
     Pseudo is Projector augmented-wave + core cor, Zval =  3.0
     Generated using &quot;atomic&quot; code by A. Dal Corso  v.6.3
     Shape of augmentation charge: PSQ
     Using radial grid of 1135 points,  6 beta functions with: 
                l(1) =   0
                l(2) =   0
                l(3) =   1
                l(4) =   1
                l(5) =   2
                l(6) =   2
     Q(r) pseudized with 0 coefficients 


     PseudoPot. # 2 for O  read from file:
     /home/mainadmin/research/danu/pseudo/O.pbe-n-kjpaw_psl.1.0.0.UPF
     MD5 check sum: e99d9cef9b487d1ca56f5b95ecd0fd7a
     Pseudo is Projector augmented-wave + core cor, Zval =  6.0
     Generated using &quot;atomic&quot; code by A. Dal Corso  v.6.3
     Shape of augmentation charge: PSQ
     Using radial grid of 1095 points,  4 beta functions with: 
                l(1) =   0
                l(2) =   0
                l(3) =   1
                l(4) =   1
     Q(r) pseudized with 0 coefficients 


     PseudoPot. # 3 for S  read from file:
     /home/mainadmin/research/danu/pseudo/S.pbe-n-kjpaw_psl.1.0.0.UPF
     MD5 check sum: fb45dfebcf3e72a4e1bd4a866ec2e262
     Pseudo is Projector augmented-wave + core cor, Zval =  6.0
     Generated using &quot;atomic&quot; code by A. Dal Corso  v.6.3
     Shape of augmentation charge: PSQ
     Using radial grid of 1151 points,  6 beta functions with: 
                l(1) =   0
                l(2) =   0
                l(3) =   1
                l(4) =   1
                l(5) =   2
                l(6) =   2
     Q(r) pseudized with 0 coefficients 


     atomic species   valence    mass     pseudopotential
        Al             3.00    26.98100     Al( 1.00)
        O              6.00    15.99900     O ( 1.00)
        S              6.00    32.06500     S ( 1.00)

     No symmetry found


                                    s                        frac. trans.

      isym =  1     identity                                     

 cryst.   s( 1) = (     1          0          0      )
                  (     0          1          0      )
                  (     0          0          1      )

 cart.    s( 1) = (  1.0000000  0.0000000  0.0000000 )
                  (  0.0000000  1.0000000  0.0000000 )
                  (  0.0000000  0.0000000  1.0000000 )


   Cartesian axes

     site n.     atom                  positions (alat units)
         1           O   tau(   1) = (   1.1543123   0.0000000   0.0000000  )
         2           Al  tau(   2) = (   0.5771561   0.0000000   0.1520261  )
         3           Al  tau(   3) = (   0.5771561   0.0000000   0.9570787  )
         4           S   tau(   4) = (   1.1543123   0.0000000   1.3382956  )
         5           O   tau(   5) = (   1.1543123   0.0000000   2.3700954  )
         6           Al  tau(   6) = (   0.5771561   0.0000000   2.5208515  )
         7           Al  tau(   7) = (   0.5771561   0.0000000   3.3240144  )
         8           S   tau(   8) = (   1.1543123   0.0000000   3.7048867  )

   Crystallographic axes

     site n.     atom                  positions (cryst. coord.)
         1           O   tau(   1) = (  0.6666667  0.6666667  0.0000000  )
         2           Al  tau(   2) = (  0.3333333  0.3333333  0.0321092  )
         3           Al  tau(   3) = (  0.3333333  0.3333333  0.2021432  )
         4           S   tau(   4) = (  0.6666667  0.6666667  0.2826595  )
         5           O   tau(   5) = (  0.6666667  0.6666667  0.5005845  )
         6           Al  tau(   6) = (  0.3333333  0.3333333  0.5324254  )
         7           Al  tau(   7) = (  0.3333333  0.3333333  0.7020603  )
         8           S   tau(   8) = (  0.6666667  0.6666667  0.7825038  )

     number of k points=  4058 (tetrahedron method)
                       cart. coord. in units 2pi/alat
        k(    1) = (   0.0000000   0.0000000   0.0000000), wk =   0.0002465
        k(    2) = (   0.0000000   0.0000000   0.0704029), wk =   0.0004931
        k(    3) = (   0.0111066  -0.0192114   0.0000000), wk =   0.0004931
        k(    4) = (   0.0111066  -0.0192114   0.0704029), wk =   0.0004931
        k(    5) = (   0.0111066  -0.0192114  -0.0704029), wk =   0.0004931
        k(    6) = (   0.0222132  -0.0384228   0.0000000), wk =   0.0004931
        k(    7) = (   0.0222132  -0.0384228   0.0704029), wk =   0.0004931
        k(    8) = (   0.0222132  -0.0384228  -0.0704029), wk =   0.0004931
        k(    9) = (   0.0333199  -0.0576342   0.0000000), wk =   0.0004931
        k(   10) = (   0.0333199  -0.0576342   0.0704029), wk =   0.0004931
        k(   11) = (   0.0333199  -0.0576342  -0.0704029), wk =   0.0004931
        k(   12) = (   0.0444265  -0.0768456   0.0000000), wk =   0.0004931
        k(   13) = (   0.0444265  -0.0768456   0.0704029), wk =   0.0004931
        k(   14) = (   0.0444265  -0.0768456  -0.0704029), wk =   0.0004931
        k(   15) = (   0.0555331  -0.0960570   0.0000000), wk =   0.0004931
        k(   16) = (   0.0555331  -0.0960570   0.0704029), wk =   0.0004931
        k(   17) = (   0.0555331  -0.0960570  -0.0704029), wk =   0.0004931
        k(   18) = (   0.0666397  -0.1152684   0.0000000), wk =   0.0004931
        k(   19) = (   0.0666397  -0.1152684   0.0704029), wk =   0.0004931
        k(   20) = (   0.0666397  -0.1152684  -0.0704029), wk =   0.0004931
        k(   21) = (   0.0777464  -0.1344798   0.0000000), wk =   0.0004931
        k(   22) = (   0.0777464  -0.1344798   0.0704029), wk =   0.0004931
        k(   23) = (   0.0777464  -0.1344798  -0.0704029), wk =   0.0004931
        k(   24) = (   0.0888530  -0.1536912   0.0000000), wk =   0.0004931
        k(   25) = (   0.0888530  -0.1536912   0.0704029), wk =   0.0004931
        k(   26) = (   0.0888530  -0.1536912  -0.0704029), wk =   0.0004931
        k(   27) = (   0.0999596  -0.1729026   0.0000000), wk =   0.0004931
        k(   28) = (   0.0999596  -0.1729026   0.0704029), wk =   0.0004931
        k(   29) = (   0.0999596  -0.1729026  -0.0704029), wk =   0.0004931
        k(   30) = (   0.1110662  -0.1921140   0.0000000), wk =   0.0004931
        k(   31) = (   0.1110662  -0.1921140   0.0704029), wk =   0.0004931
        k(   32) = (   0.1110662  -0.1921140  -0.0704029), wk =   0.0004931
        k(   33) = (   0.1221729  -0.2113254   0.0000000), wk =   0.0004931
        k(   34) = (   0.1221729  -0.2113254   0.0704029), wk =   0.0004931
        k(   35) = (   0.1221729  -0.2113254  -0.0704029), wk =   0.0004931
        k(   36) = (   0.1332795  -0.2305368   0.0000000), wk =   0.0004931
        k(   37) = (   0.1332795  -0.2305368   0.0704029), wk =   0.0004931
        k(   38) = (   0.1332795  -0.2305368  -0.0704029), wk =   0.0004931
        k(   39) = (   0.1443861  -0.2497482   0.0000000), wk =   0.0004931
        k(   40) = (   0.1443861  -0.2497482   0.0704029), wk =   0.0004931
        k(   41) = (   0.1443861  -0.2497482  -0.0704029), wk =   0.0004931
        k(   42) = (   0.1554927  -0.2689596   0.0000000), wk =   0.0004931
        k(   43) = (   0.1554927  -0.2689596   0.0704029), wk =   0.0004931
        k(   44) = (   0.1554927  -0.2689596  -0.0704029), wk =   0.0004931
        k(   45) = (   0.1665994  -0.2881710   0.0000000), wk =   0.0004931
        k(   46) = (   0.1665994  -0.2881710   0.0704029), wk =   0.0004931
        k(   47) = (   0.1665994  -0.2881710  -0.0704029), wk =   0.0004931
        k(   48) = (   0.1777060  -0.3073824   0.0000000), wk =   0.0004931
        k(   49) = (   0.1777060  -0.3073824   0.0704029), wk =   0.0004931
        k(   50) = (   0.1777060  -0.3073824  -0.0704029), wk =   0.0004931
        k(   51) = (   0.1888126  -0.3265938   0.0000000), wk =   0.0004931
        k(   52) = (   0.1888126  -0.3265938   0.0704029), wk =   0.0004931
        k(   53) = (   0.1888126  -0.3265938  -0.0704029), wk =   0.0004931
        k(   54) = (   0.1999192  -0.3458052   0.0000000), wk =   0.0004931
        k(   55) = (   0.1999192  -0.3458052   0.0704029), wk =   0.0004931
        k(   56) = (   0.1999192  -0.3458052  -0.0704029), wk =   0.0004931
        k(   57) = (   0.2110259  -0.3650166   0.0000000), wk =   0.0004931
        k(   58) = (   0.2110259  -0.3650166   0.0704029), wk =   0.0004931
        k(   59) = (   0.2110259  -0.3650166  -0.0704029), wk =   0.0004931
        k(   60) = (   0.2221325  -0.3842280   0.0000000), wk =   0.0004931
        k(   61) = (   0.2221325  -0.3842280   0.0704029), wk =   0.0004931
        k(   62) = (   0.2221325  -0.3842280  -0.0704029), wk =   0.0004931
        k(   63) = (   0.2332391  -0.4034394   0.0000000), wk =   0.0004931
        k(   64) = (   0.2332391  -0.4034394   0.0704029), wk =   0.0004931
        k(   65) = (   0.2332391  -0.4034394  -0.0704029), wk =   0.0004931
        k(   66) = (   0.2443457  -0.4226508   0.0000000), wk =   0.0004931
        k(   67) = (   0.2443457  -0.4226508   0.0704029), wk =   0.0004931
        k(   68) = (   0.2443457  -0.4226508  -0.0704029), wk =   0.0004931
        k(   69) = (   0.2554524  -0.4418622   0.0000000), wk =   0.0004931
        k(   70) = (   0.2554524  -0.4418622   0.0704029), wk =   0.0004931
        k(   71) = (   0.2554524  -0.4418622  -0.0704029), wk =   0.0004931
        k(   72) = (   0.2665590  -0.4610737   0.0000000), wk =   0.0004931
        k(   73) = (   0.2665590  -0.4610737   0.0704029), wk =   0.0004931
        k(   74) = (   0.2665590  -0.4610737  -0.0704029), wk =   0.0004931
        k(   75) = (   0.2776656  -0.4802851   0.0000000), wk =   0.0004931
        k(   76) = (   0.2776656  -0.4802851   0.0704029), wk =   0.0004931
        k(   77) = (   0.2776656  -0.4802851  -0.0704029), wk =   0.0004931
        k(   78) = (  -0.2887722   0.4994965   0.0000000), wk =   0.0002465
        k(   79) = (  -0.2887722   0.4994965   0.0704029), wk =   0.0004931
        k(   80) = (   0.0111066   0.0192114   0.0000000), wk =   0.0004931
        k(   81) = (   0.0111066   0.0192114   0.0704029), wk =   0.0004931
        k(   82) = (   0.0111066   0.0192114  -0.0704029), wk =   0.0004931
        k(   83) = (   0.0222132   0.0000000   0.0000000), wk =   0.0004931
        k(   84) = (   0.0222132   0.0000000   0.0704029), wk =   0.0004931
        k(   85) = (   0.0222132   0.0000000  -0.0704029), wk =   0.0004931
        k(   86) = (   0.0333199  -0.0192114   0.0000000), wk =   0.0004931
        k(   87) = (   0.0333199  -0.0192114   0.0704029), wk =   0.0004931
        k(   88) = (   0.0333199  -0.0192114  -0.0704029), wk =   0.0004931
        k(   89) = (   0.0444265  -0.0384228   0.0000000), wk =   0.0004931
        k(   90) = (   0.0444265  -0.0384228   0.0704029), wk =   0.0004931
        k(   91) = (   0.0444265  -0.0384228  -0.0704029), wk =   0.0004931
        k(   92) = (   0.0555331  -0.0576342   0.0000000), wk =   0.0004931
        k(   93) = (   0.0555331  -0.0576342   0.0704029), wk =   0.0004931
        k(   94) = (   0.0555331  -0.0576342  -0.0704029), wk =   0.0004931
        k(   95) = (   0.0666397  -0.0768456   0.0000000), wk =   0.0004931
        k(   96) = (   0.0666397  -0.0768456   0.0704029), wk =   0.0004931
        k(   97) = (   0.0666397  -0.0768456  -0.0704029), wk =   0.0004931
        k(   98) = (   0.0777464  -0.0960570   0.0000000), wk =   0.0004931
        k(   99) = (   0.0777464  -0.0960570   0.0704029), wk =   0.0004931
        k(  100) = (   0.0777464  -0.0960570  -0.0704029), wk =   0.0004931
        k(  101) = (   0.0888530  -0.1152684   0.0000000), wk =   0.0004931
        k(  102) = (   0.0888530  -0.1152684   0.0704029), wk =   0.0004931
        k(  103) = (   0.0888530  -0.1152684  -0.0704029), wk =   0.0004931
        k(  104) = (   0.0999596  -0.1344798   0.0000000), wk =   0.0004931
        k(  105) = (   0.0999596  -0.1344798   0.0704029), wk =   0.0004931
        k(  106) = (   0.0999596  -0.1344798  -0.0704029), wk =   0.0004931
        k(  107) = (   0.1110662  -0.1536912   0.0000000), wk =   0.0004931
        k(  108) = (   0.1110662  -0.1536912   0.0704029), wk =   0.0004931
        k(  109) = (   0.1110662  -0.1536912  -0.0704029), wk =   0.0004931
        k(  110) = (   0.1221729  -0.1729026   0.0000000), wk =   0.0004931
        k(  111) = (   0.1221729  -0.1729026   0.0704029), wk =   0.0004931
        k(  112) = (   0.1221729  -0.1729026  -0.0704029), wk =   0.0004931
        k(  113) = (   0.1332795  -0.1921140   0.0000000), wk =   0.0004931
        k(  114) = (   0.1332795  -0.1921140   0.0704029), wk =   0.0004931
        k(  115) = (   0.1332795  -0.1921140  -0.0704029), wk =   0.0004931
        k(  116) = (   0.1443861  -0.2113254   0.0000000), wk =   0.0004931
        k(  117) = (   0.1443861  -0.2113254   0.0704029), wk =   0.0004931
        k(  118) = (   0.1443861  -0.2113254  -0.0704029), wk =   0.0004931
        k(  119) = (   0.1554927  -0.2305368   0.0000000), wk =   0.0004931
        k(  120) = (   0.1554927  -0.2305368   0.0704029), wk =   0.0004931
        k(  121) = (   0.1554927  -0.2305368  -0.0704029), wk =   0.0004931
        k(  122) = (   0.1665994  -0.2497482   0.0000000), wk =   0.0004931
        k(  123) = (   0.1665994  -0.2497482   0.0704029), wk =   0.0004931
        k(  124) = (   0.1665994  -0.2497482  -0.0704029), wk =   0.0004931
        k(  125) = (   0.1777060  -0.2689596   0.0000000), wk =   0.0004931
        k(  126) = (   0.1777060  -0.2689596   0.0704029), wk =   0.0004931
        k(  127) = (   0.1777060  -0.2689596  -0.0704029), wk =   0.0004931
        k(  128) = (   0.1888126  -0.2881710   0.0000000), wk =   0.0004931
        k(  129) = (   0.1888126  -0.2881710   0.0704029), wk =   0.0004931
        k(  130) = (   0.1888126  -0.2881710  -0.0704029), wk =   0.0004931
        k(  131) = (   0.1999192  -0.3073824   0.0000000), wk =   0.0004931
        k(  132) = (   0.1999192  -0.3073824   0.0704029), wk =   0.0004931
        k(  133) = (   0.1999192  -0.3073824  -0.0704029), wk =   0.0004931
        k(  134) = (   0.2110259  -0.3265938   0.0000000), wk =   0.0004931
        k(  135) = (   0.2110259  -0.3265938   0.0704029), wk =   0.0004931
        k(  136) = (   0.2110259  -0.3265938  -0.0704029), wk =   0.0004931
        k(  137) = (   0.2221325  -0.3458052   0.0000000), wk =   0.0004931
        k(  138) = (   0.2221325  -0.3458052   0.0704029), wk =   0.0004931
        k(  139) = (   0.2221325  -0.3458052  -0.0704029), wk =   0.0004931
        k(  140) = (   0.2332391  -0.3650166   0.0000000), wk =   0.0004931
        k(  141) = (   0.2332391  -0.3650166   0.0704029), wk =   0.0004931
        k(  142) = (   0.2332391  -0.3650166  -0.0704029), wk =   0.0004931
        k(  143) = (   0.2443457  -0.3842280   0.0000000), wk =   0.0004931
        k(  144) = (   0.2443457  -0.3842280   0.0704029), wk =   0.0004931
        k(  145) = (   0.2443457  -0.3842280  -0.0704029), wk =   0.0004931
        k(  146) = (   0.2554524  -0.4034394   0.0000000), wk =   0.0004931
        k(  147) = (   0.2554524  -0.4034394   0.0704029), wk =   0.0004931
        k(  148) = (   0.2554524  -0.4034394  -0.0704029), wk =   0.0004931
        k(  149) = (   0.2665590  -0.4226508   0.0000000), wk =   0.0004931
        k(  150) = (   0.2665590  -0.4226508   0.0704029), wk =   0.0004931
        k(  151) = (   0.2665590  -0.4226508  -0.0704029), wk =   0.0004931
        k(  152) = (   0.2776656  -0.4418622   0.0000000), wk =   0.0004931
        k(  153) = (   0.2776656  -0.4418622   0.0704029), wk =   0.0004931
        k(  154) = (   0.2776656  -0.4418622  -0.0704029), wk =   0.0004931
        k(  155) = (   0.2887722  -0.4610737   0.0000000), wk =   0.0004931
        k(  156) = (   0.2887722  -0.4610737   0.0704029), wk =   0.0004931
        k(  157) = (   0.2887722  -0.4610737  -0.0704029), wk =   0.0004931
        k(  158) = (  -0.2776656   0.5187079   0.0000000), wk =   0.0004931
        k(  159) = (  -0.2776656   0.5187079   0.0704029), wk =   0.0004931
        k(  160) = (  -0.2776656   0.5187079  -0.0704029), wk =   0.0004931
        k(  161) = (  -0.2665590   0.4994965   0.0000000), wk =   0.0004931
        k(  162) = (  -0.2665590   0.4994965   0.0704029), wk =   0.0004931
        k(  163) = (  -0.2665590   0.4994965  -0.0704029), wk =   0.0004931
        k(  164) = (  -0.2554524   0.4802851   0.0000000), wk =   0.0004931
        k(  165) = (  -0.2554524   0.4802851   0.0704029), wk =   0.0004931
        k(  166) = (  -0.2554524   0.4802851  -0.0704029), wk =   0.0004931
        k(  167) = (  -0.2443457   0.4610737   0.0000000), wk =   0.0004931
        k(  168) = (  -0.2443457   0.4610737   0.0704029), wk =   0.0004931
        k(  169) = (  -0.2443457   0.4610737  -0.0704029), wk =   0.0004931
        k(  170) = (  -0.2332391   0.4418622   0.0000000), wk =   0.0004931
        k(  171) = (  -0.2332391   0.4418622   0.0704029), wk =   0.0004931
        k(  172) = (  -0.2332391   0.4418622  -0.0704029), wk =   0.0004931
        k(  173) = (  -0.2221325   0.4226508   0.0000000), wk =   0.0004931
        k(  174) = (  -0.2221325   0.4226508   0.0704029), wk =   0.0004931
        k(  175) = (  -0.2221325   0.4226508  -0.0704029), wk =   0.0004931
        k(  176) = (  -0.2110259   0.4034394   0.0000000), wk =   0.0004931
        k(  177) = (  -0.2110259   0.4034394   0.0704029), wk =   0.0004931
        k(  178) = (  -0.2110259   0.4034394  -0.0704029), wk =   0.0004931
        k(  179) = (  -0.1999192   0.3842280   0.0000000), wk =   0.0004931
        k(  180) = (  -0.1999192   0.3842280   0.0704029), wk =   0.0004931
        k(  181) = (  -0.1999192   0.3842280  -0.0704029), wk =   0.0004931
        k(  182) = (  -0.1888126   0.3650166   0.0000000), wk =   0.0004931
        k(  183) = (  -0.1888126   0.3650166   0.0704029), wk =   0.0004931
        k(  184) = (  -0.1888126   0.3650166  -0.0704029), wk =   0.0004931
        k(  185) = (  -0.1777060   0.3458052   0.0000000), wk =   0.0004931
        k(  186) = (  -0.1777060   0.3458052   0.0704029), wk =   0.0004931
        k(  187) = (  -0.1777060   0.3458052  -0.0704029), wk =   0.0004931
        k(  188) = (  -0.1665994   0.3265938   0.0000000), wk =   0.0004931
        k(  189) = (  -0.1665994   0.3265938   0.0704029), wk =   0.0004931
        k(  190) = (  -0.1665994   0.3265938  -0.0704029), wk =   0.0004931
        k(  191) = (  -0.1554927   0.3073824   0.0000000), wk =   0.0004931
        k(  192) = (  -0.1554927   0.3073824   0.0704029), wk =   0.0004931
        k(  193) = (  -0.1554927   0.3073824  -0.0704029), wk =   0.0004931
        k(  194) = (  -0.1443861   0.2881710   0.0000000), wk =   0.0004931
        k(  195) = (  -0.1443861   0.2881710   0.0704029), wk =   0.0004931
        k(  196) = (  -0.1443861   0.2881710  -0.0704029), wk =   0.0004931
        k(  197) = (  -0.1332795   0.2689596   0.0000000), wk =   0.0004931
        k(  198) = (  -0.1332795   0.2689596   0.0704029), wk =   0.0004931
        k(  199) = (  -0.1332795   0.2689596  -0.0704029), wk =   0.0004931
        k(  200) = (  -0.1221729   0.2497482   0.0000000), wk =   0.0004931
        k(  201) = (  -0.1221729   0.2497482   0.0704029), wk =   0.0004931
        k(  202) = (  -0.1221729   0.2497482  -0.0704029), wk =   0.0004931
        k(  203) = (  -0.1110662   0.2305368   0.0000000), wk =   0.0004931
        k(  204) = (  -0.1110662   0.2305368   0.0704029), wk =   0.0004931
        k(  205) = (  -0.1110662   0.2305368  -0.0704029), wk =   0.0004931
        k(  206) = (  -0.0999596   0.2113254   0.0000000), wk =   0.0004931
        k(  207) = (  -0.0999596   0.2113254   0.0704029), wk =   0.0004931
        k(  208) = (  -0.0999596   0.2113254  -0.0704029), wk =   0.0004931
        k(  209) = (  -0.0888530   0.1921140   0.0000000), wk =   0.0004931
        k(  210) = (  -0.0888530   0.1921140   0.0704029), wk =   0.0004931
        k(  211) = (  -0.0888530   0.1921140  -0.0704029), wk =   0.0004931
        k(  212) = (  -0.0777464   0.1729026   0.0000000), wk =   0.0004931
        k(  213) = (  -0.0777464   0.1729026   0.0704029), wk =   0.0004931
        k(  214) = (  -0.0777464   0.1729026  -0.0704029), wk =   0.0004931
        k(  215) = (  -0.0666397   0.1536912   0.0000000), wk =   0.0004931
        k(  216) = (  -0.0666397   0.1536912   0.0704029), wk =   0.0004931
        k(  217) = (  -0.0666397   0.1536912  -0.0704029), wk =   0.0004931
        k(  218) = (  -0.0555331   0.1344798   0.0000000), wk =   0.0004931
        k(  219) = (  -0.0555331   0.1344798   0.0704029), wk =   0.0004931
        k(  220) = (  -0.0555331   0.1344798  -0.0704029), wk =   0.0004931
        k(  221) = (  -0.0444265   0.1152684   0.0000000), wk =   0.0004931
        k(  222) = (  -0.0444265   0.1152684   0.0704029), wk =   0.0004931
        k(  223) = (  -0.0444265   0.1152684  -0.0704029), wk =   0.0004931
        k(  224) = (  -0.0333199   0.0960570   0.0000000), wk =   0.0004931
        k(  225) = (  -0.0333199   0.0960570   0.0704029), wk =   0.0004931
        k(  226) = (  -0.0333199   0.0960570  -0.0704029), wk =   0.0004931
        k(  227) = (  -0.0222132   0.0768456   0.0000000), wk =   0.0004931
        k(  228) = (  -0.0222132   0.0768456   0.0704029), wk =   0.0004931
        k(  229) = (  -0.0222132   0.0768456  -0.0704029), wk =   0.0004931
        k(  230) = (  -0.0111066   0.0576342   0.0000000), wk =   0.0004931
        k(  231) = (  -0.0111066   0.0576342   0.0704029), wk =   0.0004931
        k(  232) = (  -0.0111066   0.0576342  -0.0704029), wk =   0.0004931
        k(  233) = (  -0.0000000   0.0384228   0.0000000), wk =   0.0004931
        k(  234) = (  -0.0000000   0.0384228   0.0704029), wk =   0.0004931
        k(  235) = (  -0.0000000   0.0384228  -0.0704029), wk =   0.0004931
        k(  236) = (   0.0222132   0.0384228   0.0000000), wk =   0.0004931
        k(  237) = (   0.0222132   0.0384228   0.0704029), wk =   0.0004931
        k(  238) = (   0.0222132   0.0384228  -0.0704029), wk =   0.0004931
        k(  239) = (   0.0333199   0.0192114   0.0000000), wk =   0.0004931
        k(  240) = (   0.0333199   0.0192114   0.0704029), wk =   0.0004931
        k(  241) = (   0.0333199   0.0192114  -0.0704029), wk =   0.0004931
        k(  242) = (   0.0444265   0.0000000   0.0000000), wk =   0.0004931
        k(  243) = (   0.0444265   0.0000000   0.0704029), wk =   0.0004931
        k(  244) = (   0.0444265   0.0000000  -0.0704029), wk =   0.0004931
        k(  245) = (   0.0555331  -0.0192114   0.0000000), wk =   0.0004931
        k(  246) = (   0.0555331  -0.0192114   0.0704029), wk =   0.0004931
        k(  247) = (   0.0555331  -0.0192114  -0.0704029), wk =   0.0004931
        k(  248) = (   0.0666397  -0.0384228   0.0000000), wk =   0.0004931
        k(  249) = (   0.0666397  -0.0384228   0.0704029), wk =   0.0004931
        k(  250) = (   0.0666397  -0.0384228  -0.0704029), wk =   0.0004931
        k(  251) = (   0.0777464  -0.0576342   0.0000000), wk =   0.0004931
        k(  252) = (   0.0777464  -0.0576342   0.0704029), wk =   0.0004931
        k(  253) = (   0.0777464  -0.0576342  -0.0704029), wk =   0.0004931
        k(  254) = (   0.0888530  -0.0768456   0.0000000), wk =   0.0004931
        k(  255) = (   0.0888530  -0.0768456   0.0704029), wk =   0.0004931
        k(  256) = (   0.0888530  -0.0768456  -0.0704029), wk =   0.0004931
        k(  257) = (   0.0999596  -0.0960570   0.0000000), wk =   0.0004931
        k(  258) = (   0.0999596  -0.0960570   0.0704029), wk =   0.0004931
        k(  259) = (   0.0999596  -0.0960570  -0.0704029), wk =   0.0004931
        k(  260) = (   0.1110662  -0.1152684   0.0000000), wk =   0.0004931
        k(  261) = (   0.1110662  -0.1152684   0.0704029), wk =   0.0004931
        k(  262) = (   0.1110662  -0.1152684  -0.0704029), wk =   0.0004931
        k(  263) = (   0.1221729  -0.1344798   0.0000000), wk =   0.0004931
        k(  264) = (   0.1221729  -0.1344798   0.0704029), wk =   0.0004931
        k(  265) = (   0.1221729  -0.1344798  -0.0704029), wk =   0.0004931
        k(  266) = (   0.1332795  -0.1536912   0.0000000), wk =   0.0004931
        k(  267) = (   0.1332795  -0.1536912   0.0704029), wk =   0.0004931
        k(  268) = (   0.1332795  -0.1536912  -0.0704029), wk =   0.0004931
        k(  269) = (   0.1443861  -0.1729026   0.0000000), wk =   0.0004931
        k(  270) = (   0.1443861  -0.1729026   0.0704029), wk =   0.0004931
        k(  271) = (   0.1443861  -0.1729026  -0.0704029), wk =   0.0004931
        k(  272) = (   0.1554927  -0.1921140   0.0000000), wk =   0.0004931
        k(  273) = (   0.1554927  -0.1921140   0.0704029), wk =   0.0004931
        k(  274) = (   0.1554927  -0.1921140  -0.0704029), wk =   0.0004931
        k(  275) = (   0.1665994  -0.2113254   0.0000000), wk =   0.0004931
        k(  276) = (   0.1665994  -0.2113254   0.0704029), wk =   0.0004931
        k(  277) = (   0.1665994  -0.2113254  -0.0704029), wk =   0.0004931
        k(  278) = (   0.1777060  -0.2305368   0.0000000), wk =   0.0004931
        k(  279) = (   0.1777060  -0.2305368   0.0704029), wk =   0.0004931
        k(  280) = (   0.1777060  -0.2305368  -0.0704029), wk =   0.0004931
        k(  281) = (   0.1888126  -0.2497482   0.0000000), wk =   0.0004931
        k(  282) = (   0.1888126  -0.2497482   0.0704029), wk =   0.0004931
        k(  283) = (   0.1888126  -0.2497482  -0.0704029), wk =   0.0004931
        k(  284) = (   0.1999192  -0.2689596   0.0000000), wk =   0.0004931
        k(  285) = (   0.1999192  -0.2689596   0.0704029), wk =   0.0004931
        k(  286) = (   0.1999192  -0.2689596  -0.0704029), wk =   0.0004931
        k(  287) = (   0.2110259  -0.2881710   0.0000000), wk =   0.0004931
        k(  288) = (   0.2110259  -0.2881710   0.0704029), wk =   0.0004931
        k(  289) = (   0.2110259  -0.2881710  -0.0704029), wk =   0.0004931
        k(  290) = (   0.2221325  -0.3073824   0.0000000), wk =   0.0004931
        k(  291) = (   0.2221325  -0.3073824   0.0704029), wk =   0.0004931
        k(  292) = (   0.2221325  -0.3073824  -0.0704029), wk =   0.0004931
        k(  293) = (   0.2332391  -0.3265938   0.0000000), wk =   0.0004931
        k(  294) = (   0.2332391  -0.3265938   0.0704029), wk =   0.0004931
        k(  295) = (   0.2332391  -0.3265938  -0.0704029), wk =   0.0004931
        k(  296) = (   0.2443457  -0.3458052   0.0000000), wk =   0.0004931
        k(  297) = (   0.2443457  -0.3458052   0.0704029), wk =   0.0004931
        k(  298) = (   0.2443457  -0.3458052  -0.0704029), wk =   0.0004931
        k(  299) = (   0.2554524  -0.3650166   0.0000000), wk =   0.0004931
        k(  300) = (   0.2554524  -0.3650166   0.0704029), wk =   0.0004931
        k(  301) = (   0.2554524  -0.3650166  -0.0704029), wk =   0.0004931
        k(  302) = (   0.2665590  -0.3842280   0.0000000), wk =   0.0004931
        k(  303) = (   0.2665590  -0.3842280   0.0704029), wk =   0.0004931
        k(  304) = (   0.2665590  -0.3842280  -0.0704029), wk =   0.0004931
        k(  305) = (   0.2776656  -0.4034394   0.0000000), wk =   0.0004931
        k(  306) = (   0.2776656  -0.4034394   0.0704029), wk =   0.0004931
        k(  307) = (   0.2776656  -0.4034394  -0.0704029), wk =   0.0004931
        k(  308) = (   0.2887722  -0.4226508   0.0000000), wk =   0.0004931
        k(  309) = (   0.2887722  -0.4226508   0.0704029), wk =   0.0004931
        k(  310) = (   0.2887722  -0.4226508  -0.0704029), wk =   0.0004931
        k(  311) = (   0.2998789  -0.4418622   0.0000000), wk =   0.0004931
        k(  312) = (   0.2998789  -0.4418622   0.0704029), wk =   0.0004931
        k(  313) = (   0.2998789  -0.4418622  -0.0704029), wk =   0.0004931
        k(  314) = (  -0.2665590   0.5379193   0.0000000), wk =   0.0004931
        k(  315) = (  -0.2665590   0.5379193   0.0704029), wk =   0.0004931
        k(  316) = (  -0.2665590   0.5379193  -0.0704029), wk =   0.0004931
        k(  317) = (  -0.2554524   0.5187079   0.0000000), wk =   0.0004931
        k(  318) = (  -0.2554524   0.5187079   0.0704029), wk =   0.0004931
        k(  319) = (  -0.2554524   0.5187079  -0.0704029), wk =   0.0004931
        k(  320) = (  -0.2443457   0.4994965   0.0000000), wk =   0.0004931
        k(  321) = (  -0.2443457   0.4994965   0.0704029), wk =   0.0004931
        k(  322) = (  -0.2443457   0.4994965  -0.0704029), wk =   0.0004931
        k(  323) = (  -0.2332391   0.4802851   0.0000000), wk =   0.0004931
        k(  324) = (  -0.2332391   0.4802851   0.0704029), wk =   0.0004931
        k(  325) = (  -0.2332391   0.4802851  -0.0704029), wk =   0.0004931
        k(  326) = (  -0.2221325   0.4610737   0.0000000), wk =   0.0004931
        k(  327) = (  -0.2221325   0.4610737   0.0704029), wk =   0.0004931
        k(  328) = (  -0.2221325   0.4610737  -0.0704029), wk =   0.0004931
        k(  329) = (  -0.2110259   0.4418622   0.0000000), wk =   0.0004931
        k(  330) = (  -0.2110259   0.4418622   0.0704029), wk =   0.0004931
        k(  331) = (  -0.2110259   0.4418622  -0.0704029), wk =   0.0004931
        k(  332) = (  -0.1999192   0.4226508   0.0000000), wk =   0.0004931
        k(  333) = (  -0.1999192   0.4226508   0.0704029), wk =   0.0004931
        k(  334) = (  -0.1999192   0.4226508  -0.0704029), wk =   0.0004931
        k(  335) = (  -0.1888126   0.4034394   0.0000000), wk =   0.0004931
        k(  336) = (  -0.1888126   0.4034394   0.0704029), wk =   0.0004931
        k(  337) = (  -0.1888126   0.4034394  -0.0704029), wk =   0.0004931
        k(  338) = (  -0.1777060   0.3842280   0.0000000), wk =   0.0004931
        k(  339) = (  -0.1777060   0.3842280   0.0704029), wk =   0.0004931
        k(  340) = (  -0.1777060   0.3842280  -0.0704029), wk =   0.0004931
        k(  341) = (  -0.1665994   0.3650166   0.0000000), wk =   0.0004931
        k(  342) = (  -0.1665994   0.3650166   0.0704029), wk =   0.0004931
        k(  343) = (  -0.1665994   0.3650166  -0.0704029), wk =   0.0004931
        k(  344) = (  -0.1554927   0.3458052   0.0000000), wk =   0.0004931
        k(  345) = (  -0.1554927   0.3458052   0.0704029), wk =   0.0004931
        k(  346) = (  -0.1554927   0.3458052  -0.0704029), wk =   0.0004931
        k(  347) = (  -0.1443861   0.3265938   0.0000000), wk =   0.0004931
        k(  348) = (  -0.1443861   0.3265938   0.0704029), wk =   0.0004931
        k(  349) = (  -0.1443861   0.3265938  -0.0704029), wk =   0.0004931
        k(  350) = (  -0.1332795   0.3073824   0.0000000), wk =   0.0004931
        k(  351) = (  -0.1332795   0.3073824   0.0704029), wk =   0.0004931
        k(  352) = (  -0.1332795   0.3073824  -0.0704029), wk =   0.0004931
        k(  353) = (  -0.1221729   0.2881710   0.0000000), wk =   0.0004931
        k(  354) = (  -0.1221729   0.2881710   0.0704029), wk =   0.0004931
        k(  355) = (  -0.1221729   0.2881710  -0.0704029), wk =   0.0004931
        k(  356) = (  -0.1110662   0.2689596   0.0000000), wk =   0.0004931
        k(  357) = (  -0.1110662   0.2689596   0.0704029), wk =   0.0004931
        k(  358) = (  -0.1110662   0.2689596  -0.0704029), wk =   0.0004931
        k(  359) = (  -0.0999596   0.2497482   0.0000000), wk =   0.0004931
        k(  360) = (  -0.0999596   0.2497482   0.0704029), wk =   0.0004931
        k(  361) = (  -0.0999596   0.2497482  -0.0704029), wk =   0.0004931
        k(  362) = (  -0.0888530   0.2305368   0.0000000), wk =   0.0004931
        k(  363) = (  -0.0888530   0.2305368   0.0704029), wk =   0.0004931
        k(  364) = (  -0.0888530   0.2305368  -0.0704029), wk =   0.0004931
        k(  365) = (  -0.0777464   0.2113254   0.0000000), wk =   0.0004931
        k(  366) = (  -0.0777464   0.2113254   0.0704029), wk =   0.0004931
        k(  367) = (  -0.0777464   0.2113254  -0.0704029), wk =   0.0004931
        k(  368) = (  -0.0666397   0.1921140   0.0000000), wk =   0.0004931
        k(  369) = (  -0.0666397   0.1921140   0.0704029), wk =   0.0004931
        k(  370) = (  -0.0666397   0.1921140  -0.0704029), wk =   0.0004931
        k(  371) = (  -0.0555331   0.1729026   0.0000000), wk =   0.0004931
        k(  372) = (  -0.0555331   0.1729026   0.0704029), wk =   0.0004931
        k(  373) = (  -0.0555331   0.1729026  -0.0704029), wk =   0.0004931
        k(  374) = (  -0.0444265   0.1536912   0.0000000), wk =   0.0004931
        k(  375) = (  -0.0444265   0.1536912   0.0704029), wk =   0.0004931
        k(  376) = (  -0.0444265   0.1536912  -0.0704029), wk =   0.0004931
        k(  377) = (  -0.0333199   0.1344798   0.0000000), wk =   0.0004931
        k(  378) = (  -0.0333199   0.1344798   0.0704029), wk =   0.0004931
        k(  379) = (  -0.0333199   0.1344798  -0.0704029), wk =   0.0004931
        k(  380) = (  -0.0222132   0.1152684   0.0000000), wk =   0.0004931
        k(  381) = (  -0.0222132   0.1152684   0.0704029), wk =   0.0004931
        k(  382) = (  -0.0222132   0.1152684  -0.0704029), wk =   0.0004931
        k(  383) = (  -0.0111066   0.0960570   0.0000000), wk =   0.0004931
        k(  384) = (  -0.0111066   0.0960570   0.0704029), wk =   0.0004931
        k(  385) = (  -0.0111066   0.0960570  -0.0704029), wk =   0.0004931
        k(  386) = (   0.0000000   0.0768456   0.0000000), wk =   0.0004931
        k(  387) = (   0.0000000   0.0768456   0.0704029), wk =   0.0004931
        k(  388) = (   0.0000000   0.0768456  -0.0704029), wk =   0.0004931
        k(  389) = (   0.0111066   0.0576342   0.0000000), wk =   0.0004931
        k(  390) = (   0.0111066   0.0576342   0.0704029), wk =   0.0004931
        k(  391) = (   0.0111066   0.0576342  -0.0704029), wk =   0.0004931
        k(  392) = (   0.0333199   0.0576342   0.0000000), wk =   0.0004931
        k(  393) = (   0.0333199   0.0576342   0.0704029), wk =   0.0004931
        k(  394) = (   0.0333199   0.0576342  -0.0704029), wk =   0.0004931
        k(  395) = (   0.0444265   0.0384228   0.0000000), wk =   0.0004931
        k(  396) = (   0.0444265   0.0384228   0.0704029), wk =   0.0004931
        k(  397) = (   0.0444265   0.0384228  -0.0704029), wk =   0.0004931
        k(  398) = (   0.0555331   0.0192114   0.0000000), wk =   0.0004931
        k(  399) = (   0.0555331   0.0192114   0.0704029), wk =   0.0004931
        k(  400) = (   0.0555331   0.0192114  -0.0704029), wk =   0.0004931
        k(  401) = (   0.0666397   0.0000000   0.0000000), wk =   0.0004931
        k(  402) = (   0.0666397   0.0000000   0.0704029), wk =   0.0004931
        k(  403) = (   0.0666397   0.0000000  -0.0704029), wk =   0.0004931
        k(  404) = (   0.0777464  -0.0192114   0.0000000), wk =   0.0004931
        k(  405) = (   0.0777464  -0.0192114   0.0704029), wk =   0.0004931
        k(  406) = (   0.0777464  -0.0192114  -0.0704029), wk =   0.0004931
        k(  407) = (   0.0888530  -0.0384228   0.0000000), wk =   0.0004931
        k(  408) = (   0.0888530  -0.0384228   0.0704029), wk =   0.0004931
        k(  409) = (   0.0888530  -0.0384228  -0.0704029), wk =   0.0004931
        k(  410) = (   0.0999596  -0.0576342   0.0000000), wk =   0.0004931
        k(  411) = (   0.0999596  -0.0576342   0.0704029), wk =   0.0004931
        k(  412) = (   0.0999596  -0.0576342  -0.0704029), wk =   0.0004931
        k(  413) = (   0.1110662  -0.0768456   0.0000000), wk =   0.0004931
        k(  414) = (   0.1110662  -0.0768456   0.0704029), wk =   0.0004931
        k(  415) = (   0.1110662  -0.0768456  -0.0704029), wk =   0.0004931
        k(  416) = (   0.1221729  -0.0960570   0.0000000), wk =   0.0004931
        k(  417) = (   0.1221729  -0.0960570   0.0704029), wk =   0.0004931
        k(  418) = (   0.1221729  -0.0960570  -0.0704029), wk =   0.0004931
        k(  419) = (   0.1332795  -0.1152684   0.0000000), wk =   0.0004931
        k(  420) = (   0.1332795  -0.1152684   0.0704029), wk =   0.0004931
        k(  421) = (   0.1332795  -0.1152684  -0.0704029), wk =   0.0004931
        k(  422) = (   0.1443861  -0.1344798   0.0000000), wk =   0.0004931
        k(  423) = (   0.1443861  -0.1344798   0.0704029), wk =   0.0004931
        k(  424) = (   0.1443861  -0.1344798  -0.0704029), wk =   0.0004931
        k(  425) = (   0.1554927  -0.1536912   0.0000000), wk =   0.0004931
        k(  426) = (   0.1554927  -0.1536912   0.0704029), wk =   0.0004931
        k(  427) = (   0.1554927  -0.1536912  -0.0704029), wk =   0.0004931
        k(  428) = (   0.1665994  -0.1729026   0.0000000), wk =   0.0004931
        k(  429) = (   0.1665994  -0.1729026   0.0704029), wk =   0.0004931
        k(  430) = (   0.1665994  -0.1729026  -0.0704029), wk =   0.0004931
        k(  431) = (   0.1777060  -0.1921140   0.0000000), wk =   0.0004931
        k(  432) = (   0.1777060  -0.1921140   0.0704029), wk =   0.0004931
        k(  433) = (   0.1777060  -0.1921140  -0.0704029), wk =   0.0004931
        k(  434) = (   0.1888126  -0.2113254   0.0000000), wk =   0.0004931
        k(  435) = (   0.1888126  -0.2113254   0.0704029), wk =   0.0004931
        k(  436) = (   0.1888126  -0.2113254  -0.0704029), wk =   0.0004931
        k(  437) = (   0.1999192  -0.2305368   0.0000000), wk =   0.0004931
        k(  438) = (   0.1999192  -0.2305368   0.0704029), wk =   0.0004931
        k(  439) = (   0.1999192  -0.2305368  -0.0704029), wk =   0.0004931
        k(  440) = (   0.2110259  -0.2497482   0.0000000), wk =   0.0004931
        k(  441) = (   0.2110259  -0.2497482   0.0704029), wk =   0.0004931
        k(  442) = (   0.2110259  -0.2497482  -0.0704029), wk =   0.0004931
        k(  443) = (   0.2221325  -0.2689596   0.0000000), wk =   0.0004931
        k(  444) = (   0.2221325  -0.2689596   0.0704029), wk =   0.0004931
        k(  445) = (   0.2221325  -0.2689596  -0.0704029), wk =   0.0004931
        k(  446) = (   0.2332391  -0.2881710   0.0000000), wk =   0.0004931
        k(  447) = (   0.2332391  -0.2881710   0.0704029), wk =   0.0004931
        k(  448) = (   0.2332391  -0.2881710  -0.0704029), wk =   0.0004931
        k(  449) = (   0.2443457  -0.3073824   0.0000000), wk =   0.0004931
        k(  450) = (   0.2443457  -0.3073824   0.0704029), wk =   0.0004931
        k(  451) = (   0.2443457  -0.3073824  -0.0704029), wk =   0.0004931
        k(  452) = (   0.2554524  -0.3265938   0.0000000), wk =   0.0004931
        k(  453) = (   0.2554524  -0.3265938   0.0704029), wk =   0.0004931
        k(  454) = (   0.2554524  -0.3265938  -0.0704029), wk =   0.0004931
        k(  455) = (   0.2665590  -0.3458052   0.0000000), wk =   0.0004931
        k(  456) = (   0.2665590  -0.3458052   0.0704029), wk =   0.0004931
        k(  457) = (   0.2665590  -0.3458052  -0.0704029), wk =   0.0004931
        k(  458) = (   0.2776656  -0.3650166   0.0000000), wk =   0.0004931
        k(  459) = (   0.2776656  -0.3650166   0.0704029), wk =   0.0004931
        k(  460) = (   0.2776656  -0.3650166  -0.0704029), wk =   0.0004931
        k(  461) = (   0.2887722  -0.3842280   0.0000000), wk =   0.0004931
        k(  462) = (   0.2887722  -0.3842280   0.0704029), wk =   0.0004931
        k(  463) = (   0.2887722  -0.3842280  -0.0704029), wk =   0.0004931
        k(  464) = (   0.2998789  -0.4034394   0.0000000), wk =   0.0004931
        k(  465) = (   0.2998789  -0.4034394   0.0704029), wk =   0.0004931
        k(  466) = (   0.2998789  -0.4034394  -0.0704029), wk =   0.0004931
        k(  467) = (   0.3109855  -0.4226508   0.0000000), wk =   0.0004931
        k(  468) = (   0.3109855  -0.4226508   0.0704029), wk =   0.0004931
        k(  469) = (   0.3109855  -0.4226508  -0.0704029), wk =   0.0004931
        k(  470) = (  -0.2554524   0.5571307   0.0000000), wk =   0.0004931
        k(  471) = (  -0.2554524   0.5571307   0.0704029), wk =   0.0004931
        k(  472) = (  -0.2554524   0.5571307  -0.0704029), wk =   0.0004931
        k(  473) = (  -0.2443457   0.5379193   0.0000000), wk =   0.0004931
        k(  474) = (  -0.2443457   0.5379193   0.0704029), wk =   0.0004931
        k(  475) = (  -0.2443457   0.5379193  -0.0704029), wk =   0.0004931
        k(  476) = (  -0.2332391   0.5187079   0.0000000), wk =   0.0004931
        k(  477) = (  -0.2332391   0.5187079   0.0704029), wk =   0.0004931
        k(  478) = (  -0.2332391   0.5187079  -0.0704029), wk =   0.0004931
        k(  479) = (  -0.2221325   0.4994965   0.0000000), wk =   0.0004931
        k(  480) = (  -0.2221325   0.4994965   0.0704029), wk =   0.0004931
        k(  481) = (  -0.2221325   0.4994965  -0.0704029), wk =   0.0004931
        k(  482) = (  -0.2110259   0.4802851   0.0000000), wk =   0.0004931
        k(  483) = (  -0.2110259   0.4802851   0.0704029), wk =   0.0004931
        k(  484) = (  -0.2110259   0.4802851  -0.0704029), wk =   0.0004931
        k(  485) = (  -0.1999192   0.4610737   0.0000000), wk =   0.0004931
        k(  486) = (  -0.1999192   0.4610737   0.0704029), wk =   0.0004931
        k(  487) = (  -0.1999192   0.4610737  -0.0704029), wk =   0.0004931
        k(  488) = (  -0.1888126   0.4418622   0.0000000), wk =   0.0004931
        k(  489) = (  -0.1888126   0.4418622   0.0704029), wk =   0.0004931
        k(  490) = (  -0.1888126   0.4418622  -0.0704029), wk =   0.0004931
        k(  491) = (  -0.1777060   0.4226508   0.0000000), wk =   0.0004931
        k(  492) = (  -0.1777060   0.4226508   0.0704029), wk =   0.0004931
        k(  493) = (  -0.1777060   0.4226508  -0.0704029), wk =   0.0004931
        k(  494) = (  -0.1665994   0.4034394   0.0000000), wk =   0.0004931
        k(  495) = (  -0.1665994   0.4034394   0.0704029), wk =   0.0004931
        k(  496) = (  -0.1665994   0.4034394  -0.0704029), wk =   0.0004931
        k(  497) = (  -0.1554927   0.3842280   0.0000000), wk =   0.0004931
        k(  498) = (  -0.1554927   0.3842280   0.0704029), wk =   0.0004931
        k(  499) = (  -0.1554927   0.3842280  -0.0704029), wk =   0.0004931
        k(  500) = (  -0.1443861   0.3650166   0.0000000), wk =   0.0004931
        k(  501) = (  -0.1443861   0.3650166   0.0704029), wk =   0.0004931
        k(  502) = (  -0.1443861   0.3650166  -0.0704029), wk =   0.0004931
        k(  503) = (  -0.1332795   0.3458052   0.0000000), wk =   0.0004931
        k(  504) = (  -0.1332795   0.3458052   0.0704029), wk =   0.0004931
        k(  505) = (  -0.1332795   0.3458052  -0.0704029), wk =   0.0004931
        k(  506) = (  -0.1221729   0.3265938   0.0000000), wk =   0.0004931
        k(  507) = (  -0.1221729   0.3265938   0.0704029), wk =   0.0004931
        k(  508) = (  -0.1221729   0.3265938  -0.0704029), wk =   0.0004931
        k(  509) = (  -0.1110662   0.3073824   0.0000000), wk =   0.0004931
        k(  510) = (  -0.1110662   0.3073824   0.0704029), wk =   0.0004931
        k(  511) = (  -0.1110662   0.3073824  -0.0704029), wk =   0.0004931
        k(  512) = (  -0.0999596   0.2881710   0.0000000), wk =   0.0004931
        k(  513) = (  -0.0999596   0.2881710   0.0704029), wk =   0.0004931
        k(  514) = (  -0.0999596   0.2881710  -0.0704029), wk =   0.0004931
        k(  515) = (  -0.0888530   0.2689596   0.0000000), wk =   0.0004931
        k(  516) = (  -0.0888530   0.2689596   0.0704029), wk =   0.0004931
        k(  517) = (  -0.0888530   0.2689596  -0.0704029), wk =   0.0004931
        k(  518) = (  -0.0777464   0.2497482   0.0000000), wk =   0.0004931
        k(  519) = (  -0.0777464   0.2497482   0.0704029), wk =   0.0004931
        k(  520) = (  -0.0777464   0.2497482  -0.0704029), wk =   0.0004931
        k(  521) = (  -0.0666397   0.2305368   0.0000000), wk =   0.0004931
        k(  522) = (  -0.0666397   0.2305368   0.0704029), wk =   0.0004931
        k(  523) = (  -0.0666397   0.2305368  -0.0704029), wk =   0.0004931
        k(  524) = (  -0.0555331   0.2113254   0.0000000), wk =   0.0004931
        k(  525) = (  -0.0555331   0.2113254   0.0704029), wk =   0.0004931
        k(  526) = (  -0.0555331   0.2113254  -0.0704029), wk =   0.0004931
        k(  527) = (  -0.0444265   0.1921140   0.0000000), wk =   0.0004931
        k(  528) = (  -0.0444265   0.1921140   0.0704029), wk =   0.0004931
        k(  529) = (  -0.0444265   0.1921140  -0.0704029), wk =   0.0004931
        k(  530) = (  -0.0333199   0.1729026   0.0000000), wk =   0.0004931
        k(  531) = (  -0.0333199   0.1729026   0.0704029), wk =   0.0004931
        k(  532) = (  -0.0333199   0.1729026  -0.0704029), wk =   0.0004931
        k(  533) = (  -0.0222132   0.1536912   0.0000000), wk =   0.0004931
        k(  534) = (  -0.0222132   0.1536912   0.0704029), wk =   0.0004931
        k(  535) = (  -0.0222132   0.1536912  -0.0704029), wk =   0.0004931
        k(  536) = (  -0.0111066   0.1344798   0.0000000), wk =   0.0004931
        k(  537) = (  -0.0111066   0.1344798   0.0704029), wk =   0.0004931
        k(  538) = (  -0.0111066   0.1344798  -0.0704029), wk =   0.0004931
        k(  539) = (  -0.0000000   0.1152684   0.0000000), wk =   0.0004931
        k(  540) = (  -0.0000000   0.1152684   0.0704029), wk =   0.0004931
        k(  541) = (  -0.0000000   0.1152684  -0.0704029), wk =   0.0004931
        k(  542) = (   0.0111066   0.0960570   0.0000000), wk =   0.0004931
        k(  543) = (   0.0111066   0.0960570   0.0704029), wk =   0.0004931
        k(  544) = (   0.0111066   0.0960570  -0.0704029), wk =   0.0004931
        k(  545) = (   0.0222132   0.0768456   0.0000000), wk =   0.0004931
        k(  546) = (   0.0222132   0.0768456   0.0704029), wk =   0.0004931
        k(  547) = (   0.0222132   0.0768456  -0.0704029), wk =   0.0004931
        k(  548) = (   0.0444265   0.0768456   0.0000000), wk =   0.0004931
        k(  549) = (   0.0444265   0.0768456   0.0704029), wk =   0.0004931
        k(  550) = (   0.0444265   0.0768456  -0.0704029), wk =   0.0004931
        k(  551) = (   0.0555331   0.0576342   0.0000000), wk =   0.0004931
        k(  552) = (   0.0555331   0.0576342   0.0704029), wk =   0.0004931
        k(  553) = (   0.0555331   0.0576342  -0.0704029), wk =   0.0004931
        k(  554) = (   0.0666397   0.0384228   0.0000000), wk =   0.0004931
        k(  555) = (   0.0666397   0.0384228   0.0704029), wk =   0.0004931
        k(  556) = (   0.0666397   0.0384228  -0.0704029), wk =   0.0004931
        k(  557) = (   0.0777464   0.0192114   0.0000000), wk =   0.0004931
        k(  558) = (   0.0777464   0.0192114   0.0704029), wk =   0.0004931
        k(  559) = (   0.0777464   0.0192114  -0.0704029), wk =   0.0004931
        k(  560) = (   0.0888530   0.0000000   0.0000000), wk =   0.0004931
        k(  561) = (   0.0888530   0.0000000   0.0704029), wk =   0.0004931
        k(  562) = (   0.0888530   0.0000000  -0.0704029), wk =   0.0004931
        k(  563) = (   0.0999596  -0.0192114   0.0000000), wk =   0.0004931
        k(  564) = (   0.0999596  -0.0192114   0.0704029), wk =   0.0004931
        k(  565) = (   0.0999596  -0.0192114  -0.0704029), wk =   0.0004931
        k(  566) = (   0.1110662  -0.0384228   0.0000000), wk =   0.0004931
        k(  567) = (   0.1110662  -0.0384228   0.0704029), wk =   0.0004931
        k(  568) = (   0.1110662  -0.0384228  -0.0704029), wk =   0.0004931
        k(  569) = (   0.1221729  -0.0576342   0.0000000), wk =   0.0004931
        k(  570) = (   0.1221729  -0.0576342   0.0704029), wk =   0.0004931
        k(  571) = (   0.1221729  -0.0576342  -0.0704029), wk =   0.0004931
        k(  572) = (   0.1332795  -0.0768456   0.0000000), wk =   0.0004931
        k(  573) = (   0.1332795  -0.0768456   0.0704029), wk =   0.0004931
        k(  574) = (   0.1332795  -0.0768456  -0.0704029), wk =   0.0004931
        k(  575) = (   0.1443861  -0.0960570   0.0000000), wk =   0.0004931
        k(  576) = (   0.1443861  -0.0960570   0.0704029), wk =   0.0004931
        k(  577) = (   0.1443861  -0.0960570  -0.0704029), wk =   0.0004931
        k(  578) = (   0.1554927  -0.1152684   0.0000000), wk =   0.0004931
        k(  579) = (   0.1554927  -0.1152684   0.0704029), wk =   0.0004931
        k(  580) = (   0.1554927  -0.1152684  -0.0704029), wk =   0.0004931
        k(  581) = (   0.1665994  -0.1344798   0.0000000), wk =   0.0004931
        k(  582) = (   0.1665994  -0.1344798   0.0704029), wk =   0.0004931
        k(  583) = (   0.1665994  -0.1344798  -0.0704029), wk =   0.0004931
        k(  584) = (   0.1777060  -0.1536912   0.0000000), wk =   0.0004931
        k(  585) = (   0.1777060  -0.1536912   0.0704029), wk =   0.0004931
        k(  586) = (   0.1777060  -0.1536912  -0.0704029), wk =   0.0004931
        k(  587) = (   0.1888126  -0.1729026   0.0000000), wk =   0.0004931
        k(  588) = (   0.1888126  -0.1729026   0.0704029), wk =   0.0004931
        k(  589) = (   0.1888126  -0.1729026  -0.0704029), wk =   0.0004931
        k(  590) = (   0.1999192  -0.1921140   0.0000000), wk =   0.0004931
        k(  591) = (   0.1999192  -0.1921140   0.0704029), wk =   0.0004931
        k(  592) = (   0.1999192  -0.1921140  -0.0704029), wk =   0.0004931
        k(  593) = (   0.2110259  -0.2113254   0.0000000), wk =   0.0004931
        k(  594) = (   0.2110259  -0.2113254   0.0704029), wk =   0.0004931
        k(  595) = (   0.2110259  -0.2113254  -0.0704029), wk =   0.0004931
        k(  596) = (   0.2221325  -0.2305368   0.0000000), wk =   0.0004931
        k(  597) = (   0.2221325  -0.2305368   0.0704029), wk =   0.0004931
        k(  598) = (   0.2221325  -0.2305368  -0.0704029), wk =   0.0004931
        k(  599) = (   0.2332391  -0.2497482   0.0000000), wk =   0.0004931
        k(  600) = (   0.2332391  -0.2497482   0.0704029), wk =   0.0004931
        k(  601) = (   0.2332391  -0.2497482  -0.0704029), wk =   0.0004931
        k(  602) = (   0.2443457  -0.2689596   0.0000000), wk =   0.0004931
        k(  603) = (   0.2443457  -0.2689596   0.0704029), wk =   0.0004931
        k(  604) = (   0.2443457  -0.2689596  -0.0704029), wk =   0.0004931
        k(  605) = (   0.2554524  -0.2881710   0.0000000), wk =   0.0004931
        k(  606) = (   0.2554524  -0.2881710   0.0704029), wk =   0.0004931
        k(  607) = (   0.2554524  -0.2881710  -0.0704029), wk =   0.0004931
        k(  608) = (   0.2665590  -0.3073824   0.0000000), wk =   0.0004931
        k(  609) = (   0.2665590  -0.3073824   0.0704029), wk =   0.0004931
        k(  610) = (   0.2665590  -0.3073824  -0.0704029), wk =   0.0004931
        k(  611) = (   0.2776656  -0.3265938   0.0000000), wk =   0.0004931
        k(  612) = (   0.2776656  -0.3265938   0.0704029), wk =   0.0004931
        k(  613) = (   0.2776656  -0.3265938  -0.0704029), wk =   0.0004931
        k(  614) = (   0.2887722  -0.3458052   0.0000000), wk =   0.0004931
        k(  615) = (   0.2887722  -0.3458052   0.0704029), wk =   0.0004931
        k(  616) = (   0.2887722  -0.3458052  -0.0704029), wk =   0.0004931
        k(  617) = (   0.2998789  -0.3650166   0.0000000), wk =   0.0004931
        k(  618) = (   0.2998789  -0.3650166   0.0704029), wk =   0.0004931
        k(  619) = (   0.2998789  -0.3650166  -0.0704029), wk =   0.0004931
        k(  620) = (   0.3109855  -0.3842280   0.0000000), wk =   0.0004931
        k(  621) = (   0.3109855  -0.3842280   0.0704029), wk =   0.0004931
        k(  622) = (   0.3109855  -0.3842280  -0.0704029), wk =   0.0004931
        k(  623) = (   0.3220921  -0.4034394   0.0000000), wk =   0.0004931
        k(  624) = (   0.3220921  -0.4034394   0.0704029), wk =   0.0004931
        k(  625) = (   0.3220921  -0.4034394  -0.0704029), wk =   0.0004931
        k(  626) = (  -0.2443457   0.5763421   0.0000000), wk =   0.0004931
        k(  627) = (  -0.2443457   0.5763421   0.0704029), wk =   0.0004931
        k(  628) = (  -0.2443457   0.5763421  -0.0704029), wk =   0.0004931
        k(  629) = (  -0.2332391   0.5571307   0.0000000), wk =   0.0004931
        k(  630) = (  -0.2332391   0.5571307   0.0704029), wk =   0.0004931
        k(  631) = (  -0.2332391   0.5571307  -0.0704029), wk =   0.0004931
        k(  632) = (  -0.2221325   0.5379193   0.0000000), wk =   0.0004931
        k(  633) = (  -0.2221325   0.5379193   0.0704029), wk =   0.0004931
        k(  634) = (  -0.2221325   0.5379193  -0.0704029), wk =   0.0004931
        k(  635) = (  -0.2110259   0.5187079   0.0000000), wk =   0.0004931
        k(  636) = (  -0.2110259   0.5187079   0.0704029), wk =   0.0004931
        k(  637) = (  -0.2110259   0.5187079  -0.0704029), wk =   0.0004931
        k(  638) = (  -0.1999192   0.4994965   0.0000000), wk =   0.0004931
        k(  639) = (  -0.1999192   0.4994965   0.0704029), wk =   0.0004931
        k(  640) = (  -0.1999192   0.4994965  -0.0704029), wk =   0.0004931
        k(  641) = (  -0.1888126   0.4802851   0.0000000), wk =   0.0004931
        k(  642) = (  -0.1888126   0.4802851   0.0704029), wk =   0.0004931
        k(  643) = (  -0.1888126   0.4802851  -0.0704029), wk =   0.0004931
        k(  644) = (  -0.1777060   0.4610737   0.0000000), wk =   0.0004931
        k(  645) = (  -0.1777060   0.4610737   0.0704029), wk =   0.0004931
        k(  646) = (  -0.1777060   0.4610737  -0.0704029), wk =   0.0004931
        k(  647) = (  -0.1665994   0.4418622   0.0000000), wk =   0.0004931
        k(  648) = (  -0.1665994   0.4418622   0.0704029), wk =   0.0004931
        k(  649) = (  -0.1665994   0.4418622  -0.0704029), wk =   0.0004931
        k(  650) = (  -0.1554927   0.4226508   0.0000000), wk =   0.0004931
        k(  651) = (  -0.1554927   0.4226508   0.0704029), wk =   0.0004931
        k(  652) = (  -0.1554927   0.4226508  -0.0704029), wk =   0.0004931
        k(  653) = (  -0.1443861   0.4034394   0.0000000), wk =   0.0004931
        k(  654) = (  -0.1443861   0.4034394   0.0704029), wk =   0.0004931
        k(  655) = (  -0.1443861   0.4034394  -0.0704029), wk =   0.0004931
        k(  656) = (  -0.1332795   0.3842280   0.0000000), wk =   0.0004931
        k(  657) = (  -0.1332795   0.3842280   0.0704029), wk =   0.0004931
        k(  658) = (  -0.1332795   0.3842280  -0.0704029), wk =   0.0004931
        k(  659) = (  -0.1221729   0.3650166   0.0000000), wk =   0.0004931
        k(  660) = (  -0.1221729   0.3650166   0.0704029), wk =   0.0004931
        k(  661) = (  -0.1221729   0.3650166  -0.0704029), wk =   0.0004931
        k(  662) = (  -0.1110662   0.3458052   0.0000000), wk =   0.0004931
        k(  663) = (  -0.1110662   0.3458052   0.0704029), wk =   0.0004931
        k(  664) = (  -0.1110662   0.3458052  -0.0704029), wk =   0.0004931
        k(  665) = (  -0.0999596   0.3265938   0.0000000), wk =   0.0004931
        k(  666) = (  -0.0999596   0.3265938   0.0704029), wk =   0.0004931
        k(  667) = (  -0.0999596   0.3265938  -0.0704029), wk =   0.0004931
        k(  668) = (  -0.0888530   0.3073824   0.0000000), wk =   0.0004931
        k(  669) = (  -0.0888530   0.3073824   0.0704029), wk =   0.0004931
        k(  670) = (  -0.0888530   0.3073824  -0.0704029), wk =   0.0004931
        k(  671) = (  -0.0777464   0.2881710   0.0000000), wk =   0.0004931
        k(  672) = (  -0.0777464   0.2881710   0.0704029), wk =   0.0004931
        k(  673) = (  -0.0777464   0.2881710  -0.0704029), wk =   0.0004931
        k(  674) = (  -0.0666397   0.2689596   0.0000000), wk =   0.0004931
        k(  675) = (  -0.0666397   0.2689596   0.0704029), wk =   0.0004931
        k(  676) = (  -0.0666397   0.2689596  -0.0704029), wk =   0.0004931
        k(  677) = (  -0.0555331   0.2497482   0.0000000), wk =   0.0004931
        k(  678) = (  -0.0555331   0.2497482   0.0704029), wk =   0.0004931
        k(  679) = (  -0.0555331   0.2497482  -0.0704029), wk =   0.0004931
        k(  680) = (  -0.0444265   0.2305368   0.0000000), wk =   0.0004931
        k(  681) = (  -0.0444265   0.2305368   0.0704029), wk =   0.0004931
        k(  682) = (  -0.0444265   0.2305368  -0.0704029), wk =   0.0004931
        k(  683) = (  -0.0333199   0.2113254   0.0000000), wk =   0.0004931
        k(  684) = (  -0.0333199   0.2113254   0.0704029), wk =   0.0004931
        k(  685) = (  -0.0333199   0.2113254  -0.0704029), wk =   0.0004931
        k(  686) = (  -0.0222132   0.1921140   0.0000000), wk =   0.0004931
        k(  687) = (  -0.0222132   0.1921140   0.0704029), wk =   0.0004931
        k(  688) = (  -0.0222132   0.1921140  -0.0704029), wk =   0.0004931
        k(  689) = (  -0.0111066   0.1729026   0.0000000), wk =   0.0004931
        k(  690) = (  -0.0111066   0.1729026   0.0704029), wk =   0.0004931
        k(  691) = (  -0.0111066   0.1729026  -0.0704029), wk =   0.0004931
        k(  692) = (   0.0000000   0.1536912   0.0000000), wk =   0.0004931
        k(  693) = (   0.0000000   0.1536912   0.0704029), wk =   0.0004931
        k(  694) = (   0.0000000   0.1536912  -0.0704029), wk =   0.0004931
        k(  695) = (   0.0111066   0.1344798   0.0000000), wk =   0.0004931
        k(  696) = (   0.0111066   0.1344798   0.0704029), wk =   0.0004931
        k(  697) = (   0.0111066   0.1344798  -0.0704029), wk =   0.0004931
        k(  698) = (   0.0222132   0.1152684   0.0000000), wk =   0.0004931
        k(  699) = (   0.0222132   0.1152684   0.0704029), wk =   0.0004931
        k(  700) = (   0.0222132   0.1152684  -0.0704029), wk =   0.0004931
        k(  701) = (   0.0333199   0.0960570   0.0000000), wk =   0.0004931
        k(  702) = (   0.0333199   0.0960570   0.0704029), wk =   0.0004931
        k(  703) = (   0.0333199   0.0960570  -0.0704029), wk =   0.0004931
        k(  704) = (   0.0555331   0.0960570   0.0000000), wk =   0.0004931
        k(  705) = (   0.0555331   0.0960570   0.0704029), wk =   0.0004931
        k(  706) = (   0.0555331   0.0960570  -0.0704029), wk =   0.0004931
        k(  707) = (   0.0666397   0.0768456   0.0000000), wk =   0.0004931
        k(  708) = (   0.0666397   0.0768456   0.0704029), wk =   0.0004931
        k(  709) = (   0.0666397   0.0768456  -0.0704029), wk =   0.0004931
        k(  710) = (   0.0777464   0.0576342   0.0000000), wk =   0.0004931
        k(  711) = (   0.0777464   0.0576342   0.0704029), wk =   0.0004931
        k(  712) = (   0.0777464   0.0576342  -0.0704029), wk =   0.0004931
        k(  713) = (   0.0888530   0.0384228   0.0000000), wk =   0.0004931
        k(  714) = (   0.0888530   0.0384228   0.0704029), wk =   0.0004931
        k(  715) = (   0.0888530   0.0384228  -0.0704029), wk =   0.0004931
        k(  716) = (   0.0999596   0.0192114   0.0000000), wk =   0.0004931
        k(  717) = (   0.0999596   0.0192114   0.0704029), wk =   0.0004931
        k(  718) = (   0.0999596   0.0192114  -0.0704029), wk =   0.0004931
        k(  719) = (   0.1110662   0.0000000   0.0000000), wk =   0.0004931
        k(  720) = (   0.1110662   0.0000000   0.0704029), wk =   0.0004931
        k(  721) = (   0.1110662   0.0000000  -0.0704029), wk =   0.0004931
        k(  722) = (   0.1221729  -0.0192114   0.0000000), wk =   0.0004931
        k(  723) = (   0.1221729  -0.0192114   0.0704029), wk =   0.0004931
        k(  724) = (   0.1221729  -0.0192114  -0.0704029), wk =   0.0004931
        k(  725) = (   0.1332795  -0.0384228   0.0000000), wk =   0.0004931
        k(  726) = (   0.1332795  -0.0384228   0.0704029), wk =   0.0004931
        k(  727) = (   0.1332795  -0.0384228  -0.0704029), wk =   0.0004931
        k(  728) = (   0.1443861  -0.0576342   0.0000000), wk =   0.0004931
        k(  729) = (   0.1443861  -0.0576342   0.0704029), wk =   0.0004931
        k(  730) = (   0.1443861  -0.0576342  -0.0704029), wk =   0.0004931
        k(  731) = (   0.1554927  -0.0768456   0.0000000), wk =   0.0004931
        k(  732) = (   0.1554927  -0.0768456   0.0704029), wk =   0.0004931
        k(  733) = (   0.1554927  -0.0768456  -0.0704029), wk =   0.0004931
        k(  734) = (   0.1665994  -0.0960570   0.0000000), wk =   0.0004931
        k(  735) = (   0.1665994  -0.0960570   0.0704029), wk =   0.0004931
        k(  736) = (   0.1665994  -0.0960570  -0.0704029), wk =   0.0004931
        k(  737) = (   0.1777060  -0.1152684   0.0000000), wk =   0.0004931
        k(  738) = (   0.1777060  -0.1152684   0.0704029), wk =   0.0004931
        k(  739) = (   0.1777060  -0.1152684  -0.0704029), wk =   0.0004931
        k(  740) = (   0.1888126  -0.1344798   0.0000000), wk =   0.0004931
        k(  741) = (   0.1888126  -0.1344798   0.0704029), wk =   0.0004931
        k(  742) = (   0.1888126  -0.1344798  -0.0704029), wk =   0.0004931
        k(  743) = (   0.1999192  -0.1536912   0.0000000), wk =   0.0004931
        k(  744) = (   0.1999192  -0.1536912   0.0704029), wk =   0.0004931
        k(  745) = (   0.1999192  -0.1536912  -0.0704029), wk =   0.0004931
        k(  746) = (   0.2110259  -0.1729026   0.0000000), wk =   0.0004931
        k(  747) = (   0.2110259  -0.1729026   0.0704029), wk =   0.0004931
        k(  748) = (   0.2110259  -0.1729026  -0.0704029), wk =   0.0004931
        k(  749) = (   0.2221325  -0.1921140   0.0000000), wk =   0.0004931
        k(  750) = (   0.2221325  -0.1921140   0.0704029), wk =   0.0004931
        k(  751) = (   0.2221325  -0.1921140  -0.0704029), wk =   0.0004931
        k(  752) = (   0.2332391  -0.2113254   0.0000000), wk =   0.0004931
        k(  753) = (   0.2332391  -0.2113254   0.0704029), wk =   0.0004931
        k(  754) = (   0.2332391  -0.2113254  -0.0704029), wk =   0.0004931
        k(  755) = (   0.2443457  -0.2305368   0.0000000), wk =   0.0004931
        k(  756) = (   0.2443457  -0.2305368   0.0704029), wk =   0.0004931
        k(  757) = (   0.2443457  -0.2305368  -0.0704029), wk =   0.0004931
        k(  758) = (   0.2554524  -0.2497482   0.0000000), wk =   0.0004931
        k(  759) = (   0.2554524  -0.2497482   0.0704029), wk =   0.0004931
        k(  760) = (   0.2554524  -0.2497482  -0.0704029), wk =   0.0004931
        k(  761) = (   0.2665590  -0.2689596   0.0000000), wk =   0.0004931
        k(  762) = (   0.2665590  -0.2689596   0.0704029), wk =   0.0004931
        k(  763) = (   0.2665590  -0.2689596  -0.0704029), wk =   0.0004931
        k(  764) = (   0.2776656  -0.2881710   0.0000000), wk =   0.0004931
        k(  765) = (   0.2776656  -0.2881710   0.0704029), wk =   0.0004931
        k(  766) = (   0.2776656  -0.2881710  -0.0704029), wk =   0.0004931
        k(  767) = (   0.2887722  -0.3073824   0.0000000), wk =   0.0004931
        k(  768) = (   0.2887722  -0.3073824   0.0704029), wk =   0.0004931
        k(  769) = (   0.2887722  -0.3073824  -0.0704029), wk =   0.0004931
        k(  770) = (   0.2998789  -0.3265938   0.0000000), wk =   0.0004931
        k(  771) = (   0.2998789  -0.3265938   0.0704029), wk =   0.0004931
        k(  772) = (   0.2998789  -0.3265938  -0.0704029), wk =   0.0004931
        k(  773) = (   0.3109855  -0.3458052   0.0000000), wk =   0.0004931
        k(  774) = (   0.3109855  -0.3458052   0.0704029), wk =   0.0004931
        k(  775) = (   0.3109855  -0.3458052  -0.0704029), wk =   0.0004931
        k(  776) = (   0.3220921  -0.3650166   0.0000000), wk =   0.0004931
        k(  777) = (   0.3220921  -0.3650166   0.0704029), wk =   0.0004931
        k(  778) = (   0.3220921  -0.3650166  -0.0704029), wk =   0.0004931
        k(  779) = (   0.3331987  -0.3842280   0.0000000), wk =   0.0004931
        k(  780) = (   0.3331987  -0.3842280   0.0704029), wk =   0.0004931
        k(  781) = (   0.3331987  -0.3842280  -0.0704029), wk =   0.0004931
        k(  782) = (  -0.2332391   0.5955535   0.0000000), wk =   0.0004931
        k(  783) = (  -0.2332391   0.5955535   0.0704029), wk =   0.0004931
        k(  784) = (  -0.2332391   0.5955535  -0.0704029), wk =   0.0004931
        k(  785) = (  -0.2221325   0.5763421   0.0000000), wk =   0.0004931
        k(  786) = (  -0.2221325   0.5763421   0.0704029), wk =   0.0004931
        k(  787) = (  -0.2221325   0.5763421  -0.0704029), wk =   0.0004931
        k(  788) = (  -0.2110259   0.5571307   0.0000000), wk =   0.0004931
        k(  789) = (  -0.2110259   0.5571307   0.0704029), wk =   0.0004931
        k(  790) = (  -0.2110259   0.5571307  -0.0704029), wk =   0.0004931
        k(  791) = (  -0.1999192   0.5379193   0.0000000), wk =   0.0004931
        k(  792) = (  -0.1999192   0.5379193   0.0704029), wk =   0.0004931
        k(  793) = (  -0.1999192   0.5379193  -0.0704029), wk =   0.0004931
        k(  794) = (  -0.1888126   0.5187079   0.0000000), wk =   0.0004931
        k(  795) = (  -0.1888126   0.5187079   0.0704029), wk =   0.0004931
        k(  796) = (  -0.1888126   0.5187079  -0.0704029), wk =   0.0004931
        k(  797) = (  -0.1777060   0.4994965   0.0000000), wk =   0.0004931
        k(  798) = (  -0.1777060   0.4994965   0.0704029), wk =   0.0004931
        k(  799) = (  -0.1777060   0.4994965  -0.0704029), wk =   0.0004931
        k(  800) = (  -0.1665994   0.4802851   0.0000000), wk =   0.0004931
        k(  801) = (  -0.1665994   0.4802851   0.0704029), wk =   0.0004931
        k(  802) = (  -0.1665994   0.4802851  -0.0704029), wk =   0.0004931
        k(  803) = (  -0.1554927   0.4610737   0.0000000), wk =   0.0004931
        k(  804) = (  -0.1554927   0.4610737   0.0704029), wk =   0.0004931
        k(  805) = (  -0.1554927   0.4610737  -0.0704029), wk =   0.0004931
        k(  806) = (  -0.1443861   0.4418622   0.0000000), wk =   0.0004931
        k(  807) = (  -0.1443861   0.4418622   0.0704029), wk =   0.0004931
        k(  808) = (  -0.1443861   0.4418622  -0.0704029), wk =   0.0004931
        k(  809) = (  -0.1332795   0.4226508   0.0000000), wk =   0.0004931
        k(  810) = (  -0.1332795   0.4226508   0.0704029), wk =   0.0004931
        k(  811) = (  -0.1332795   0.4226508  -0.0704029), wk =   0.0004931
        k(  812) = (  -0.1221729   0.4034394   0.0000000), wk =   0.0004931
        k(  813) = (  -0.1221729   0.4034394   0.0704029), wk =   0.0004931
        k(  814) = (  -0.1221729   0.4034394  -0.0704029), wk =   0.0004931
        k(  815) = (  -0.1110662   0.3842280   0.0000000), wk =   0.0004931
        k(  816) = (  -0.1110662   0.3842280   0.0704029), wk =   0.0004931
        k(  817) = (  -0.1110662   0.3842280  -0.0704029), wk =   0.0004931
        k(  818) = (  -0.0999596   0.3650166   0.0000000), wk =   0.0004931
        k(  819) = (  -0.0999596   0.3650166   0.0704029), wk =   0.0004931
        k(  820) = (  -0.0999596   0.3650166  -0.0704029), wk =   0.0004931
        k(  821) = (  -0.0888530   0.3458052   0.0000000), wk =   0.0004931
        k(  822) = (  -0.0888530   0.3458052   0.0704029), wk =   0.0004931
        k(  823) = (  -0.0888530   0.3458052  -0.0704029), wk =   0.0004931
        k(  824) = (  -0.0777464   0.3265938   0.0000000), wk =   0.0004931
        k(  825) = (  -0.0777464   0.3265938   0.0704029), wk =   0.0004931
        k(  826) = (  -0.0777464   0.3265938  -0.0704029), wk =   0.0004931
        k(  827) = (  -0.0666397   0.3073824   0.0000000), wk =   0.0004931
        k(  828) = (  -0.0666397   0.3073824   0.0704029), wk =   0.0004931
        k(  829) = (  -0.0666397   0.3073824  -0.0704029), wk =   0.0004931
        k(  830) = (  -0.0555331   0.2881710   0.0000000), wk =   0.0004931
        k(  831) = (  -0.0555331   0.2881710   0.0704029), wk =   0.0004931
        k(  832) = (  -0.0555331   0.2881710  -0.0704029), wk =   0.0004931
        k(  833) = (  -0.0444265   0.2689596   0.0000000), wk =   0.0004931
        k(  834) = (  -0.0444265   0.2689596   0.0704029), wk =   0.0004931
        k(  835) = (  -0.0444265   0.2689596  -0.0704029), wk =   0.0004931
        k(  836) = (  -0.0333199   0.2497482   0.0000000), wk =   0.0004931
        k(  837) = (  -0.0333199   0.2497482   0.0704029), wk =   0.0004931
        k(  838) = (  -0.0333199   0.2497482  -0.0704029), wk =   0.0004931
        k(  839) = (  -0.0222132   0.2305368   0.0000000), wk =   0.0004931
        k(  840) = (  -0.0222132   0.2305368   0.0704029), wk =   0.0004931
        k(  841) = (  -0.0222132   0.2305368  -0.0704029), wk =   0.0004931
        k(  842) = (  -0.0111066   0.2113254   0.0000000), wk =   0.0004931
        k(  843) = (  -0.0111066   0.2113254   0.0704029), wk =   0.0004931
        k(  844) = (  -0.0111066   0.2113254  -0.0704029), wk =   0.0004931
        k(  845) = (   0.0000000   0.1921140   0.0000000), wk =   0.0004931
        k(  846) = (   0.0000000   0.1921140   0.0704029), wk =   0.0004931
        k(  847) = (   0.0000000   0.1921140  -0.0704029), wk =   0.0004931
        k(  848) = (   0.0111066   0.1729026   0.0000000), wk =   0.0004931
        k(  849) = (   0.0111066   0.1729026   0.0704029), wk =   0.0004931
        k(  850) = (   0.0111066   0.1729026  -0.0704029), wk =   0.0004931
        k(  851) = (   0.0222132   0.1536912   0.0000000), wk =   0.0004931
        k(  852) = (   0.0222132   0.1536912   0.0704029), wk =   0.0004931
        k(  853) = (   0.0222132   0.1536912  -0.0704029), wk =   0.0004931
        k(  854) = (   0.0333199   0.1344798   0.0000000), wk =   0.0004931
        k(  855) = (   0.0333199   0.1344798   0.0704029), wk =   0.0004931
        k(  856) = (   0.0333199   0.1344798  -0.0704029), wk =   0.0004931
        k(  857) = (   0.0444265   0.1152684   0.0000000), wk =   0.0004931
        k(  858) = (   0.0444265   0.1152684   0.0704029), wk =   0.0004931
        k(  859) = (   0.0444265   0.1152684  -0.0704029), wk =   0.0004931
        k(  860) = (   0.0666397   0.1152684   0.0000000), wk =   0.0004931
        k(  861) = (   0.0666397   0.1152684   0.0704029), wk =   0.0004931
        k(  862) = (   0.0666397   0.1152684  -0.0704029), wk =   0.0004931
        k(  863) = (   0.0777464   0.0960570   0.0000000), wk =   0.0004931
        k(  864) = (   0.0777464   0.0960570   0.0704029), wk =   0.0004931
        k(  865) = (   0.0777464   0.0960570  -0.0704029), wk =   0.0004931
        k(  866) = (   0.0888530   0.0768456   0.0000000), wk =   0.0004931
        k(  867) = (   0.0888530   0.0768456   0.0704029), wk =   0.0004931
        k(  868) = (   0.0888530   0.0768456  -0.0704029), wk =   0.0004931
        k(  869) = (   0.0999596   0.0576342   0.0000000), wk =   0.0004931
        k(  870) = (   0.0999596   0.0576342   0.0704029), wk =   0.0004931
        k(  871) = (   0.0999596   0.0576342  -0.0704029), wk =   0.0004931
        k(  872) = (   0.1110662   0.0384228   0.0000000), wk =   0.0004931
        k(  873) = (   0.1110662   0.0384228   0.0704029), wk =   0.0004931
        k(  874) = (   0.1110662   0.0384228  -0.0704029), wk =   0.0004931
        k(  875) = (   0.1221729   0.0192114   0.0000000), wk =   0.0004931
        k(  876) = (   0.1221729   0.0192114   0.0704029), wk =   0.0004931
        k(  877) = (   0.1221729   0.0192114  -0.0704029), wk =   0.0004931
        k(  878) = (   0.1332795   0.0000000   0.0000000), wk =   0.0004931
        k(  879) = (   0.1332795   0.0000000   0.0704029), wk =   0.0004931
        k(  880) = (   0.1332795   0.0000000  -0.0704029), wk =   0.0004931
        k(  881) = (   0.1443861  -0.0192114   0.0000000), wk =   0.0004931
        k(  882) = (   0.1443861  -0.0192114   0.0704029), wk =   0.0004931
        k(  883) = (   0.1443861  -0.0192114  -0.0704029), wk =   0.0004931
        k(  884) = (   0.1554927  -0.0384228   0.0000000), wk =   0.0004931
        k(  885) = (   0.1554927  -0.0384228   0.0704029), wk =   0.0004931
        k(  886) = (   0.1554927  -0.0384228  -0.0704029), wk =   0.0004931
        k(  887) = (   0.1665994  -0.0576342   0.0000000), wk =   0.0004931
        k(  888) = (   0.1665994  -0.0576342   0.0704029), wk =   0.0004931
        k(  889) = (   0.1665994  -0.0576342  -0.0704029), wk =   0.0004931
        k(  890) = (   0.1777060  -0.0768456   0.0000000), wk =   0.0004931
        k(  891) = (   0.1777060  -0.0768456   0.0704029), wk =   0.0004931
        k(  892) = (   0.1777060  -0.0768456  -0.0704029), wk =   0.0004931
        k(  893) = (   0.1888126  -0.0960570   0.0000000), wk =   0.0004931
        k(  894) = (   0.1888126  -0.0960570   0.0704029), wk =   0.0004931
        k(  895) = (   0.1888126  -0.0960570  -0.0704029), wk =   0.0004931
        k(  896) = (   0.1999192  -0.1152684   0.0000000), wk =   0.0004931
        k(  897) = (   0.1999192  -0.1152684   0.0704029), wk =   0.0004931
        k(  898) = (   0.1999192  -0.1152684  -0.0704029), wk =   0.0004931
        k(  899) = (   0.2110259  -0.1344798   0.0000000), wk =   0.0004931
        k(  900) = (   0.2110259  -0.1344798   0.0704029), wk =   0.0004931
        k(  901) = (   0.2110259  -0.1344798  -0.0704029), wk =   0.0004931
        k(  902) = (   0.2221325  -0.1536912   0.0000000), wk =   0.0004931
        k(  903) = (   0.2221325  -0.1536912   0.0704029), wk =   0.0004931
        k(  904) = (   0.2221325  -0.1536912  -0.0704029), wk =   0.0004931
        k(  905) = (   0.2332391  -0.1729026   0.0000000), wk =   0.0004931
        k(  906) = (   0.2332391  -0.1729026   0.0704029), wk =   0.0004931
        k(  907) = (   0.2332391  -0.1729026  -0.0704029), wk =   0.0004931
        k(  908) = (   0.2443457  -0.1921140   0.0000000), wk =   0.0004931
        k(  909) = (   0.2443457  -0.1921140   0.0704029), wk =   0.0004931
        k(  910) = (   0.2443457  -0.1921140  -0.0704029), wk =   0.0004931
        k(  911) = (   0.2554524  -0.2113254   0.0000000), wk =   0.0004931
        k(  912) = (   0.2554524  -0.2113254   0.0704029), wk =   0.0004931
        k(  913) = (   0.2554524  -0.2113254  -0.0704029), wk =   0.0004931
        k(  914) = (   0.2665590  -0.2305368   0.0000000), wk =   0.0004931
        k(  915) = (   0.2665590  -0.2305368   0.0704029), wk =   0.0004931
        k(  916) = (   0.2665590  -0.2305368  -0.0704029), wk =   0.0004931
        k(  917) = (   0.2776656  -0.2497482   0.0000000), wk =   0.0004931
        k(  918) = (   0.2776656  -0.2497482   0.0704029), wk =   0.0004931
        k(  919) = (   0.2776656  -0.2497482  -0.0704029), wk =   0.0004931
        k(  920) = (   0.2887722  -0.2689596   0.0000000), wk =   0.0004931
        k(  921) = (   0.2887722  -0.2689596   0.0704029), wk =   0.0004931
        k(  922) = (   0.2887722  -0.2689596  -0.0704029), wk =   0.0004931
        k(  923) = (   0.2998789  -0.2881710   0.0000000), wk =   0.0004931
        k(  924) = (   0.2998789  -0.2881710   0.0704029), wk =   0.0004931
        k(  925) = (   0.2998789  -0.2881710  -0.0704029), wk =   0.0004931
        k(  926) = (   0.3109855  -0.3073824   0.0000000), wk =   0.0004931
        k(  927) = (   0.3109855  -0.3073824   0.0704029), wk =   0.0004931
        k(  928) = (   0.3109855  -0.3073824  -0.0704029), wk =   0.0004931
        k(  929) = (   0.3220921  -0.3265938   0.0000000), wk =   0.0004931
        k(  930) = (   0.3220921  -0.3265938   0.0704029), wk =   0.0004931
        k(  931) = (   0.3220921  -0.3265938  -0.0704029), wk =   0.0004931
        k(  932) = (   0.3331987  -0.3458052   0.0000000), wk =   0.0004931
        k(  933) = (   0.3331987  -0.3458052   0.0704029), wk =   0.0004931
        k(  934) = (   0.3331987  -0.3458052  -0.0704029), wk =   0.0004931
        k(  935) = (   0.3443054  -0.3650166   0.0000000), wk =   0.0004931
        k(  936) = (   0.3443054  -0.3650166   0.0704029), wk =   0.0004931
        k(  937) = (   0.3443054  -0.3650166  -0.0704029), wk =   0.0004931
        k(  938) = (  -0.2221325   0.6147649   0.0000000), wk =   0.0004931
        k(  939) = (  -0.2221325   0.6147649   0.0704029), wk =   0.0004931
        k(  940) = (  -0.2221325   0.6147649  -0.0704029), wk =   0.0004931
        k(  941) = (  -0.2110259   0.5955535   0.0000000), wk =   0.0004931
        k(  942) = (  -0.2110259   0.5955535   0.0704029), wk =   0.0004931
        k(  943) = (  -0.2110259   0.5955535  -0.0704029), wk =   0.0004931
        k(  944) = (  -0.1999192   0.5763421   0.0000000), wk =   0.0004931
        k(  945) = (  -0.1999192   0.5763421   0.0704029), wk =   0.0004931
        k(  946) = (  -0.1999192   0.5763421  -0.0704029), wk =   0.0004931
        k(  947) = (  -0.1888126   0.5571307   0.0000000), wk =   0.0004931
        k(  948) = (  -0.1888126   0.5571307   0.0704029), wk =   0.0004931
        k(  949) = (  -0.1888126   0.5571307  -0.0704029), wk =   0.0004931
        k(  950) = (  -0.1777060   0.5379193   0.0000000), wk =   0.0004931
        k(  951) = (  -0.1777060   0.5379193   0.0704029), wk =   0.0004931
        k(  952) = (  -0.1777060   0.5379193  -0.0704029), wk =   0.0004931
        k(  953) = (  -0.1665994   0.5187079   0.0000000), wk =   0.0004931
        k(  954) = (  -0.1665994   0.5187079   0.0704029), wk =   0.0004931
[...]
     1.0000   1.0000   1.0000   1.0000   1.0000   1.0000   1.0000   1.0000
     1.0000   1.0000   1.0000   1.0000   1.0000   1.0000   1.0000   1.0000
     1.0000   1.0000   0.0000   0.0000   0.0000   0.0000   0.0000   0.0000
     0.0000

          k =-0.1111-0.8069-0.0704 (  7410 PWs)   bands (ev):

   -13.9693 -13.9647  -7.1592  -7.1491  -2.1232  -2.1146  -0.6845  -0.6779
    -0.5573  -0.5403   0.8046   0.9352   1.7434   1.7647   2.1423   2.3529
     4.3064   4.4147   7.2614   7.3222   9.1471   9.1719  10.0405  10.2042
    10.4327

     occupation numbers 
     1.0000   1.0000   1.0000   1.0000   1.0000   1.0000   1.0000   1.0000
     1.0000   1.0000   1.0000   1.0000   1.0000   1.0000   1.0000   1.0000
     1.0000   1.0000   0.0000   0.0000   0.0000   0.0000   0.0000   0.0000
     0.0000

          k =-0.1000-0.8261 0.0000 (  7405 PWs)   bands (ev):

   -13.9689 -13.9643  -7.1545  -7.1442  -2.1760  -2.1619  -0.6733  -0.6428
    -0.5999  -0.5938   0.7485   1.0214   1.8213   1.9356   2.1171   2.4642
     4.2279   4.4174   7.0889   7.2967   9.2034   9.2663   9.9740  10.2045
    10.3940

     occupation numbers 
     1.0000   1.0000   1.0000   1.0000   1.0000   1.0000   1.0000   1.0000
     1.0000   1.0000   1.0000   1.0000   1.0000   1.0000   1.0000   1.0000
     1.0000   1.0000   0.0000   0.0000   0.0000   0.0000   0.0000   0.0000
     0.0000

          k =-0.1000-0.8261 0.0704 (  7407 PWs)   bands (ev):

   -13.9689 -13.9643  -7.1544  -7.1443  -2.1734  -2.1646  -0.6641  -0.6513
    -0.6013  -0.5933   0.8031   0.9362   1.8728   1.9260   2.1961   2.3653
     4.2861   4.3654   7.1279   7.2575   9.1746   9.3938   9.7374  10.2297
    10.4463

     occupation numbers 
     1.0000   1.0000   1.0000   1.0000   1.0000   1.0000   1.0000   1.0000
     1.0000   1.0000   1.0000   1.0000   1.0000   1.0000   1.0000   1.0000
     1.0000   1.0000   0.0000   0.0000   0.0000   0.0000   0.0000   0.0000
     0.0000

          k =-0.1000-0.8261-0.0704 (  7407 PWs)   bands (ev):

   -13.9689 -13.9643  -7.1544  -7.1443  -2.1736  -2.1644  -0.6675  -0.6469
    -0.6005  -0.5952   0.8038   0.9354   1.8781   1.9222   2.1863   2.3746
     4.2702   4.3802   7.1530   7.2318   9.1868   9.3017   9.9320  10.2091
    10.4291

     occupation numbers 
     1.0000   1.0000   1.0000   1.0000   1.0000   1.0000   1.0000   1.0000
     1.0000   1.0000   1.0000   1.0000   1.0000   1.0000   1.0000   1.0000
     1.0000   1.0000   0.0000   0.0000   0.0000   0.0000   0.0000   0.0000
     0.0000

          k =-0.0889-0.8453 0.0000 (  7417 PWs)   bands (ev):

   -13.9685 -13.9638  -7.1489  -7.1386  -2.2310  -2.2155  -0.7740  -0.7350
    -0.5263  -0.5194   0.7504   1.0232   1.8932   2.1107   2.2476   2.4903
     4.1874   4.3737   6.9653   7.2158   9.1869   9.3407   9.9524  10.1812
    10.3649

     occupation numbers 
     1.0000   1.0000   1.0000   1.0000   1.0000   1.0000   1.0000   1.0000
     1.0000   1.0000   1.0000   1.0000   1.0000   1.0000   1.0000   1.0000
     1.0000   1.0000   0.0000   0.0000   0.0000   0.0000   0.0000   0.0000
     0.0000

          k =-0.0889-0.8453 0.0704 (  7413 PWs)   bands (ev):

   -13.9685 -13.9638  -7.1488  -7.1387  -2.2280  -2.2187  -0.7646  -0.7445
    -0.5263  -0.5194   0.8052   0.9379   1.9838   2.0889   2.2880   2.4030
     4.2458   4.3212   7.0124   7.1667   9.2544   9.3636   9.7198  10.2705
    10.4907

     occupation numbers 
     1.0000   1.0000   1.0000   1.0000   1.0000   1.0000   1.0000   1.0000
     1.0000   1.0000   1.0000   1.0000   1.0000   1.0000   1.0000   1.0000
     1.0000   1.0000   0.0000   0.0000   0.0000   0.0000   0.0000   0.0000
     0.0000

          k =-0.0889-0.8453-0.0704 (  7413 PWs)   bands (ev):

   -13.9685 -13.9638  -7.1488  -7.1387  -2.2282  -2.2184  -0.7655  -0.7436
    -0.5264  -0.5194   0.8055   0.9376   1.9867   2.0849   2.2793   2.4139
     4.2275   4.3381   7.0406   7.1369   9.1765   9.4284   9.8280  10.1880
    10.4577

     occupation numbers 
     1.0000   1.0000   1.0000   1.0000   1.0000   1.0000   1.0000   1.0000
     1.0000   1.0000   1.0000   1.0000   1.0000   1.0000   1.0000   1.0000
     1.0000   1.0000   0.0000   0.0000   0.0000   0.0000   0.0000   0.0000
     0.0000

          k =-0.0777-0.8645 0.0000 (  7405 PWs)   bands (ev):

   -13.9680 -13.9634  -7.1428  -7.1325  -2.2864  -2.2694  -0.8769  -0.8355
    -0.4426  -0.4356   0.7545   1.0260   1.9362   2.2716   2.4199   2.5430
     4.1422   4.3253   6.8459   7.1343   9.0910   9.4281   9.8999  10.1036
    10.4263

     occupation numbers 
     1.0000   1.0000   1.0000   1.0000   1.0000   1.0000   1.0000   1.0000
     1.0000   1.0000   1.0000   1.0000   1.0000   1.0000   1.0000   1.0000
     1.0000   1.0000   0.0000   0.0000   0.0000   0.0000   0.0000   0.0000
     0.0000

          k =-0.0777-0.8645 0.0704 (  7415 PWs)   bands (ev):

   -13.9680 -13.9634  -7.1427  -7.1326  -2.2829  -2.2730  -0.8671  -0.8454
    -0.4426  -0.4356   0.8093   0.9410   2.0502   2.2189   2.4366   2.4865
     4.2002   4.2727   6.9007   7.0756   9.2631   9.2960   9.7323  10.2482
    10.4640

     occupation numbers 
     1.0000   1.0000   1.0000   1.0000   1.0000   1.0000   1.0000   1.0000
     1.0000   1.0000   1.0000   1.0000   1.0000   1.0000   1.0000   1.0000
     1.0000   1.0000   0.0000   0.0000   0.0000   0.0000   0.0000   0.0000
     0.0000

          k =-0.0777-0.8645-0.0704 (  7415 PWs)   bands (ev):

   -13.9680 -13.9634  -7.1427  -7.1326  -2.2831  -2.2727  -0.8675  -0.8449
    -0.4426  -0.4356   0.8093   0.9412   2.0488   2.2175   2.4313   2.4958
     4.1804   4.2908   6.9303   7.0434   9.1363   9.4851   9.7572  10.1066
    10.5158

     occupation numbers 
     1.0000   1.0000   1.0000   1.0000   1.0000   1.0000   1.0000   1.0000
     1.0000   1.0000   1.0000   1.0000   1.0000   1.0000   1.0000   1.0000
     1.0000   1.0000   0.0000   0.0000   0.0000   0.0000   0.0000   0.0000
     0.0000

          k =-0.0666-0.8837 0.0000 (  7405 PWs)   bands (ev):

   -13.9675 -13.9629  -7.1365  -7.1262  -2.3390  -2.3206  -0.9739  -0.9305
    -0.3594  -0.3524   0.7601   1.0292   1.9655   2.3765   2.6091   2.6549
     4.0948   4.2748   6.7345   7.0558   8.9891   9.4587   9.8132   9.9993
    10.5244

     occupation numbers 
     1.0000   1.0000   1.0000   1.0000   1.0000   1.0000   1.0000   1.0000
     1.0000   1.0000   1.0000   1.0000   1.0000   1.0000   1.0000   1.0000
     1.0000   1.0000   0.0000   0.0000   0.0000   0.0000   0.0000   0.0000
     0.0000

          k =-0.0666-0.8837 0.0704 (  7419 PWs)   bands (ev):

   -13.9675 -13.9629  -7.1364  -7.1263  -2.3351  -2.3246  -0.9636  -0.9408
    -0.3594  -0.3524   0.8146   0.9449   2.0884   2.2888   2.6157   2.6341
     4.1518   4.2225   6.7966   6.9877   9.1553   9.2894   9.7168  10.1220
    10.5224

     occupation numbers 
     1.0000   1.0000   1.0000   1.0000   1.0000   1.0000   1.0000   1.0000
     1.0000   1.0000   1.0000   1.0000   1.0000   1.0000   1.0000   1.0000
     1.0000   1.0000   0.0000   0.0000   0.0000   0.0000   0.0000   0.0000
     0.0000

          k =-0.0666-0.8837-0.0704 (  7419 PWs)   bands (ev):

   -13.9675 -13.9629  -7.1364  -7.1263  -2.3354  -2.3244  -0.9639  -0.9405
    -0.3594  -0.3524   0.8143   0.9455   2.0842   2.2920   2.6131   2.6390
     4.1318   4.2409   6.8260   6.9552   9.0756   9.4492   9.7281   9.9811
    10.5475

     occupation numbers 
     1.0000   1.0000   1.0000   1.0000   1.0000   1.0000   1.0000   1.0000
     1.0000   1.0000   1.0000   1.0000   1.0000   1.0000   1.0000   1.0000
     1.0000   1.0000   0.0000   0.0000   0.0000   0.0000   0.0000   0.0000
     0.0000

          k =-0.0555-0.9029 0.0000 (  7411 PWs)   bands (ev):

   -13.9671 -13.9625  -7.1304  -7.1200  -2.3867  -2.3669  -1.0609  -1.0158
    -0.2813  -0.2742   0.7661   1.0325   1.9884   2.4260   2.7980   2.8167
     4.0478   4.2252   6.6334   6.9831   8.8895   9.4442   9.6987   9.8826
    10.4736

     occupation numbers 
     1.0000   1.0000   1.0000   1.0000   1.0000   1.0000   1.0000   1.0000
     1.0000   1.0000   1.0000   1.0000   1.0000   1.0000   1.0000   1.0000
     1.0000   1.0000   0.0000   0.0000   0.0000   0.0000   0.0000   0.0000
     0.0000

          k =-0.0555-0.9029 0.0704 (  7412 PWs)   bands (ev):

   -13.9671 -13.9625  -7.1302  -7.1201  -2.3824  -2.3713  -1.0502  -1.0265
    -0.2812  -0.2742   0.8203   0.9491   2.1144   2.3242   2.8002   2.8108
     4.1034   4.1737   6.7026   6.9059   9.0491   9.2561   9.6610   9.9661
    10.4529

     occupation numbers 
     1.0000   1.0000   1.0000   1.0000   1.0000   1.0000   1.0000   1.0000
     1.0000   1.0000   1.0000   1.0000   1.0000   1.0000   1.0000   1.0000
     1.0000   1.0000   0.0000   0.0000   0.0000   0.0000   0.0000   0.0000
     0.0000

          k =-0.0555-0.9029-0.0704 (  7412 PWs)   bands (ev):

   -13.9671 -13.9625  -7.1302  -7.1201  -2.3827  -2.3711  -1.0504  -1.0263
    -0.2812  -0.2742   0.8198   0.9500   2.1088   2.3300   2.7992   2.8126
     4.0842   4.1912   6.7301   6.8750   9.0043   9.3691   9.6939   9.8320
    10.4515

     occupation numbers 
     1.0000   1.0000   1.0000   1.0000   1.0000   1.0000   1.0000   1.0000
     1.0000   1.0000   1.0000   1.0000   1.0000   1.0000   1.0000   1.0000
     1.0000   1.0000   0.0000   0.0000   0.0000   0.0000   0.0000   0.0000
     0.0000

          k =-0.0444-0.9221 0.0000 (  7411 PWs)   bands (ev):

   -13.9667 -13.9621  -7.1247  -7.1144  -2.4277  -2.4066  -1.1351  -1.0886
    -0.2117  -0.2046   0.7720   1.0355   2.0073   2.4528   2.9743   2.9857
     4.0041   4.1794   6.5448   6.9184   8.7974   9.3996   9.5697   9.7611
    10.3392

     occupation numbers 
     1.0000   1.0000   1.0000   1.0000   1.0000   1.0000   1.0000   1.0000
     1.0000   1.0000   1.0000   1.0000   1.0000   1.0000   1.0000   1.0000
     1.0000   1.0000   0.0000   0.0000   0.0000   0.0000   0.0000   0.0000
     0.0000

          k =-0.0444-0.9221 0.0704 (  7418 PWs)   bands (ev):

   -13.9667 -13.9621  -7.1246  -7.1145  -2.4231  -2.4114  -1.1241  -1.0996
    -0.2117  -0.2046   0.8258   0.9532   2.1339   2.3469   2.9749   2.9842
     4.0579   4.1291   6.6209   6.8323   8.9529   9.2059   9.5733   9.8048
    10.3327

     occupation numbers 
     1.0000   1.0000   1.0000   1.0000   1.0000   1.0000   1.0000   1.0000
     1.0000   1.0000   1.0000   1.0000   1.0000   1.0000   1.0000   1.0000
     1.0000   1.0000   0.0000   0.0000   0.0000   0.0000   0.0000   0.0000
     0.0000

          k =-0.0444-0.9221-0.0704 (  7418 PWs)   bands (ev):

   -13.9667 -13.9621  -7.1246  -7.1145  -2.4233  -2.4112  -1.1242  -1.0995
    -0.2117  -0.2046   0.8252   0.9541   2.1281   2.3534   2.9747   2.9848
     4.0407   4.1446   6.6449   6.8050   8.9302   9.2805   9.6315   9.6780
    10.3129

     occupation numbers 
     1.0000   1.0000   1.0000   1.0000   1.0000   1.0000   1.0000   1.0000
     1.0000   1.0000   1.0000   1.0000   1.0000   1.0000   1.0000   1.0000
     1.0000   1.0000   0.0000   0.0000   0.0000   0.0000   0.0000   0.0000
     0.0000

          k =-0.0333-0.9414 0.0000 (  7412 PWs)   bands (ev):

   -13.9664 -13.9617  -7.1200  -7.1096  -2.4608  -2.4386  -1.1947  -1.1470
    -0.1540  -0.1469   0.7771   1.0380   2.0226   2.4704   3.1277   3.1373
     3.9663   4.1402   6.4710   6.8639   8.7169   9.3351   9.4456   9.6534
    10.2329

     occupation numbers 
     1.0000   1.0000   1.0000   1.0000   1.0000   1.0000   1.0000   1.0000
     1.0000   1.0000   1.0000   1.0000   1.0000   1.0000   1.0000   1.0000
     1.0000   1.0000   0.0000   0.0000   0.0000   0.0000   0.0000   0.0000
     0.0000

          k =-0.0333-0.9414 0.0704 (  7416 PWs)   bands (ev):

   -13.9664 -13.9617  -7.1199  -7.1098  -2.4559  -2.4437  -1.1833  -1.1583
    -0.1540  -0.1469   0.8304   0.9567   2.1489   2.3636   3.1279   3.1369
     4.0180   4.0916   6.5537   6.7695   8.8701   9.1481   9.4748   9.6602
    10.2434

     occupation numbers 
     1.0000   1.0000   1.0000   1.0000   1.0000   1.0000   1.0000   1.0000
     1.0000   1.0000   1.0000   1.0000   1.0000   1.0000   1.0000   1.0000
     1.0000   1.0000   0.0000   0.0000   0.0000   0.0000   0.0000   0.0000
     0.0000

          k =-0.0333-0.9414-0.0704 (  7416 PWs)   bands (ev):

   -13.9664 -13.9617  -7.1199  -7.1098  -2.4561  -2.4435  -1.1834  -1.1582
    -0.1540  -0.1469   0.8299   0.9576   2.1436   2.3695   3.1279   3.1371
     4.0040   4.1042   6.5730   6.7474   8.8601   9.1945   9.5314   9.5611
    10.2155

     occupation numbers 
     1.0000   1.0000   1.0000   1.0000   1.0000   1.0000   1.0000   1.0000
     1.0000   1.0000   1.0000   1.0000   1.0000   1.0000   1.0000   1.0000
     1.0000   1.0000   0.0000   0.0000   0.0000   0.0000   0.0000   0.0000
     0.0000

          k =-0.0222-0.9606 0.0000 (  7423 PWs)   bands (ev):

   -13.9661 -13.9615  -7.1163  -7.1060  -2.4850  -2.4621  -1.2382  -1.1896
    -0.1107  -0.1036   0.7810   1.0398   2.0341   2.4824   3.2476   3.2569
     3.9372   4.1102   6.4150   6.8222   8.6528   9.2638   9.3450   9.5774
    10.1648

     occupation numbers 
     1.0000   1.0000   1.0000   1.0000   1.0000   1.0000   1.0000   1.0000
     1.0000   1.0000   1.0000   1.0000   1.0000   1.0000   1.0000   1.0000
     1.0000   1.0000   0.0000   0.0000   0.0000   0.0000   0.0000   0.0000
     0.0000

          k =-0.0222-0.9606 0.0704 (  7422 PWs)   bands (ev):

   -13.9661 -13.9615  -7.1162  -7.1061  -2.4800  -2.4673  -1.2266  -1.2011
    -0.1107  -0.1036   0.8339   0.9594   2.1594   2.3759   3.2477   3.2567
     3.9865   4.0635   6.5037   6.7201   8.8044   9.0927   9.3899   9.5500
    10.1877

     occupation numbers 
     1.0000   1.0000   1.0000   1.0000   1.0000   1.0000   1.0000   1.0000
     1.0000   1.0000   1.0000   1.0000   1.0000   1.0000   1.0000   1.0000
     1.0000   1.0000   0.0000   0.0000   0.0000   0.0000   0.0000   0.0000
     0.0000

          k =-0.0222-0.9606-0.0704 (  7422 PWs)   bands (ev):

   -13.9661 -13.9615  -7.1162  -7.1061  -2.4801  -2.4672  -1.2267  -1.2010
    -0.1107  -0.1036   0.8335   0.9601   2.1555   2.3804   3.2477   3.2568
     3.9765   4.0724   6.5171   6.7046   8.8008   9.1187   9.4218   9.4942
    10.1594

     occupation numbers 
     1.0000   1.0000   1.0000   1.0000   1.0000   1.0000   1.0000   1.0000
     1.0000   1.0000   1.0000   1.0000   1.0000   1.0000   1.0000   1.0000
     1.0000   1.0000   0.0000   0.0000   0.0000   0.0000   0.0000   0.0000
     0.0000

          k =-0.0111-0.9798 0.0000 (  7421 PWs)   bands (ev):

   -13.9659 -13.9613  -7.1141  -7.1037  -2.4998  -2.4763  -1.2646  -1.2155
    -0.0839  -0.0767   0.7835   1.0410   2.0411   2.4896   3.3243   3.3336
     3.9187   4.0914   6.3797   6.7957   8.6108   9.2079   9.2807   9.5354
    10.1275

     occupation numbers 
     1.0000   1.0000   1.0000   1.0000   1.0000   1.0000   1.0000   1.0000
     1.0000   1.0000   1.0000   1.0000   1.0000   1.0000   1.0000   1.0000
     1.0000   1.0000   0.0000   0.0000   0.0000   0.0000   0.0000   0.0000
     0.0000

          k =-0.0111-0.9798 0.0704 (  7425 PWs)   bands (ev):

   -13.9659 -13.9613  -7.1140  -7.1039  -2.4947  -2.4817  -1.2529  -1.2271
    -0.0839  -0.0767   0.8360   0.9612   2.1654   2.3839   3.3245   3.3335
     3.9654   4.0468   6.4735   6.6872   8.7614   9.0527   9.3360   9.4805
    10.1552

     occupation numbers 
     1.0000   1.0000   1.0000   1.0000   1.0000   1.0000   1.0000   1.0000
     1.0000   1.0000   1.0000   1.0000   1.0000   1.0000   1.0000   1.0000
     1.0000   1.0000   0.0000   0.0000   0.0000   0.0000   0.0000   0.0000
     0.0000

          k =-0.0111-0.9798-0.0704 (  7425 PWs)   bands (ev):

   -13.9659 -13.9613  -7.1140  -7.1039  -2.4947  -2.4817  -1.2529  -1.2271
    -0.0839  -0.0767   0.8358   0.9616   2.1633   2.3863   3.3245   3.3335
     3.9603   4.0514   6.4804   6.6793   8.7604   9.0642   9.3504   9.4556
    10.1349

     occupation numbers 
     1.0000   1.0000   1.0000   1.0000   1.0000   1.0000   1.0000   1.0000
     1.0000   1.0000   1.0000   1.0000   1.0000   1.0000   1.0000   1.0000
     1.0000   1.0000   0.0000   0.0000   0.0000   0.0000   0.0000   0.0000
     0.0000

          k =-0.5775 0.0000 0.0000 (  7426 PWs)   bands (ev):

   -13.9659 -13.9613  -7.1133  -7.1030  -2.5048  -2.4811  -1.2735  -1.2242
    -0.0748  -0.0676   0.7843   1.0413   2.0436   2.4920   3.3507   3.3601
     3.9123   4.0850   6.3676   6.7866   8.5961   9.1870   9.2587   9.5222
    10.1155

     occupation numbers 
     1.0000   1.0000   1.0000   1.0000   1.0000   1.0000   1.0000   1.0000
     1.0000   1.0000   1.0000   1.0000   1.0000   1.0000   1.0000   1.0000
     1.0000   1.0000   0.0000   0.0000   0.0000   0.0000   0.0000   0.0000
     0.0000

          k =-0.5775 0.0000 0.0704 (  7406 PWs)   bands (ev):

   -13.9659 -13.9613  -7.1132  -7.1031  -2.4996  -2.4865  -1.2617  -1.2358
    -0.0747  -0.0676   0.8367   0.9619   2.1667   2.3875   3.3509   3.3599
     3.9565   4.0427   6.4655   6.6733   8.7461   9.0411   9.3218   9.4502
    10.1351

     occupation numbers 
     1.0000   1.0000   1.0000   1.0000   1.0000   1.0000   1.0000   1.0000
     1.0000   1.0000   1.0000   1.0000   1.0000   1.0000   1.0000   1.0000
     1.0000   1.0000   0.0000   0.0000   0.0000   0.0000   0.0000   0.0000
     0.0000

     the Fermi energy is     4.8518 ev
     (compare with:     5.2791 eV, computed in scf)

     Writing all to output data dir ./work/Al2SO.save/
 
     init_run     :      4.15s CPU      4.20s WALL (       1 calls)
     electrons    :   3507.52s CPU   4657.63s WALL (       1 calls)

     Called by init_run:
     wfcinit      :      0.00s CPU      0.00s WALL (       1 calls)
     wfcinit:atom :      0.50s CPU      0.57s WALL (    4058 calls)
     wfcinit:wfcr :     61.61s CPU     89.38s WALL (    4058 calls)
     potinit      :      3.86s CPU      3.89s WALL (       1 calls)
     hinit0       :      0.10s CPU      0.12s WALL (       1 calls)

     Called by electrons:
     c_bands      :   3506.94s CPU   4657.03s WALL (       1 calls)
     v_of_rho     :      3.79s CPU      3.81s WALL (       1 calls)
     v_h          :      0.00s CPU      0.00s WALL (       1 calls)
     v_xc         :      3.79s CPU      3.81s WALL (       1 calls)
     newd         :      0.04s CPU      0.04s WALL (       1 calls)
     PAW_pot      :      0.07s CPU      0.09s WALL (       1 calls)
     vdW_kernel   :      3.75s CPU      3.76s WALL (       1 calls)

     Called by c_bands:
     init_us_2    :      1.20s CPU      1.36s WALL (    4058 calls)
     init_us_2:cp :      1.20s CPU      1.35s WALL (    4058 calls)
     cegterg      :   3426.47s CPU   4547.58s WALL (   24295 calls)

     Called by sum_band:

     Called by *egterg:
     cdiaghg      :    250.48s CPU    283.54s WALL (  486794 calls)
     cegterg:over :    206.75s CPU    238.01s WALL (  482736 calls)
     cegterg:upda :     81.19s CPU     89.56s WALL (  482736 calls)
     cegterg:last :    200.84s CPU    213.10s WALL (  197056 calls)
     h_psi        :   2492.12s CPU   3524.97s WALL (  511089 calls)
     s_psi        :    178.30s CPU    202.35s WALL (  511089 calls)
     g_psi        :      6.19s CPU      6.72s WALL (  482736 calls)

     Called by h_psi:
     h_psi:calbec :    291.72s CPU    402.17s WALL (  511089 calls)
     vloc_psi     :   1872.65s CPU   2730.58s WALL (  511089 calls)
     add_vuspsi   :    315.76s CPU    378.90s WALL (  511089 calls)

     General routines
     calbec       :    290.64s CPU    400.82s WALL (  511089 calls)
     fft          :      0.02s CPU      0.03s WALL (      62 calls)
     fftw         :   1802.16s CPU   2634.12s WALL (10588020 calls)
     davcio       :      0.79s CPU      1.03s WALL (    8116 calls)
 
     Parallel routines

     PAW routines
     PAW_pot      :      0.07s CPU      0.09s WALL (       1 calls)
 
     PWSCF        :  58m44.51s CPU      1h18m WALL

 
   This run was terminated on:   9:39:24  12Jun2023            

=------------------------------------------------------------------------------=
   JOB DONE.
=------------------------------------------------------------------------------=
