
     Program PWSCF v.7.0 starts on 11Jun2023 at 14:33:36 

     This program is part of the open-source Quantum ESPRESSO suite
     for quantum simulation of materials; please cite
         "P. Giannozzi et al., J. Phys.:Condens. Matter 21 395502 (2009);
         "P. Giannozzi et al., J. Phys.:Condens. Matter 29 465901 (2017);
         "P. Giannozzi et al., J. Chem. Phys. 152 154105 (2020);
          URL http://www.quantum-espresso.org", 
     in publications or presentations arising from this work. More details at
     http://www.quantum-espresso.org/quote

     Parallel version (MPI), running on    18 processors

     MPI processes distributed on     1 nodes
     R & G space division:  proc/nbgrp/npool/nimage =      18
     37096 MiB available memory on the printing compute node when the environment starts
 
     Waiting for input...
     Reading input from standard input

     Current dimensions of program PWSCF are:
     Max number of different atomic species (ntypx) = 10
     Max number of k-points (npk) =  40000
     Max angular momentum in pseudopotentials (lmaxx) =  4
     Message from routine volume:
     axis vectors are left-handed
     file Al.pbe-n-kjpaw_psl.1.0.0.UPF: wavefunction(s)  3S 3P renormalized
     file O.pbe-n-kjpaw_psl.1.0.0.UPF: wavefunction(s)  2S 2P renormalized
     file S.pbe-n-kjpaw_psl.1.0.0.UPF: wavefunction(s)  3S 3P renormalized

     IMPORTANT: XC functional enforced from input :
     Exchange-correlation= VDW-DF2-B86R
                           (   1   4  26   0   2   0   0)
     Any further DFT definition will be discarded
     Please, verify this is what you really want

     Message from routine setup:
     using ibrav=0 with symmetry is DISCOURAGED, use correct ibrav instead

     Subspace diagonalization in iterative solution of the eigenvalue problem:
     a serial algorithm will be used

 
     Parallelization info
     --------------------
     sticks:   dense  smooth     PW     G-vecs:    dense   smooth      PW
     Min          34      34     11                 3294     3294     585
     Max          35      35     12                 3305     3305     598
     Sum         625     625    199                59367    59367   10611
 
     Using Slab Decomposition
 


     bravais-lattice index     =            0
     lattice parameter (alat)  =       6.1344  a.u.
     unit-cell volume          =     947.1615 (a.u.)^3
     number of atoms/cell      =            8
     number of atomic types    =            3
     number of electrons       =        36.00
     number of Kohn-Sham states=           25
     kinetic-energy cutoff     =      60.0000  Ry
     charge density cutoff     =     240.0000  Ry
     scf convergence threshold =      1.0E-08
     mixing beta               =       0.5000
     number of iterations used =            8  plain     mixing
     Exchange-correlation= VDW-DF2-B86R
                           (   1   4  26   0   2   0   0)

     celldm(1)=   6.134387  celldm(2)=   0.000000  celldm(3)=   0.000000
     celldm(4)=   0.000000  celldm(5)=   0.000000  celldm(6)=   0.000000

     crystal axes: (cart. coord. in units of alat)
               a(1) = (   0.865734   0.500504   0.000000 )  
               a(2) = (   0.865734  -0.500504   0.000000 )  
               a(3) = (   0.000000   0.000000   4.734656 )  

     reciprocal axes: (cart. coord. in units 2 pi/alat)
               b(1) = (  0.577544  0.998993  0.000000 )  
               b(2) = (  0.577544 -0.998993  0.000000 )  
               b(3) = (  0.000000  0.000000  0.211209 )  


     PseudoPot. # 1 for Al read from file:
     /home/mainadmin/research/danu/pseudo/Al.pbe-n-kjpaw_psl.1.0.0.UPF
     MD5 check sum: 502b6b27b9c6270cab5dd1084b96fa6d
     Pseudo is Projector augmented-wave + core cor, Zval =  3.0
     Generated using &quot;atomic&quot; code by A. Dal Corso  v.6.3
     Shape of augmentation charge: PSQ
     Using radial grid of 1135 points,  6 beta functions with: 
                l(1) =   0
                l(2) =   0
                l(3) =   1
                l(4) =   1
                l(5) =   2
                l(6) =   2
     Q(r) pseudized with 0 coefficients 


     PseudoPot. # 2 for O  read from file:
     /home/mainadmin/research/danu/pseudo/O.pbe-n-kjpaw_psl.1.0.0.UPF
     MD5 check sum: e99d9cef9b487d1ca56f5b95ecd0fd7a
     Pseudo is Projector augmented-wave + core cor, Zval =  6.0
     Generated using &quot;atomic&quot; code by A. Dal Corso  v.6.3
     Shape of augmentation charge: PSQ
     Using radial grid of 1095 points,  4 beta functions with: 
                l(1) =   0
                l(2) =   0
                l(3) =   1
                l(4) =   1
     Q(r) pseudized with 0 coefficients 


     PseudoPot. # 3 for S  read from file:
     /home/mainadmin/research/danu/pseudo/S.pbe-n-kjpaw_psl.1.0.0.UPF
     MD5 check sum: fb45dfebcf3e72a4e1bd4a866ec2e262
     Pseudo is Projector augmented-wave + core cor, Zval =  6.0
     Generated using &quot;atomic&quot; code by A. Dal Corso  v.6.3
     Shape of augmentation charge: PSQ
     Using radial grid of 1151 points,  6 beta functions with: 
                l(1) =   0
                l(2) =   0
                l(3) =   1
                l(4) =   1
                l(5) =   2
                l(6) =   2
     Q(r) pseudized with 0 coefficients 


     atomic species   valence    mass     pseudopotential
        Al             3.00    26.98100     Al( 1.00)
        O              6.00    15.99900     O ( 1.00)
        S              6.00    32.06500     S ( 1.00)

      2 Sym. Ops. (no inversion) found



   Cartesian axes

     site n.     atom                  positions (alat units)
         1           O   tau(   1) = (   1.1543123   0.0000000   0.0000000  )
         2           Al  tau(   2) = (   0.5771561   0.0000000   0.1520261  )
         3           Al  tau(   3) = (   0.5771561   0.0000000   0.9570787  )
         4           S   tau(   4) = (   1.1543123   0.0000000   1.3382956  )
         5           O   tau(   5) = (   1.1543123   0.0000000   2.3700954  )
         6           Al  tau(   6) = (   0.5771561   0.0000000   2.5208515  )
         7           Al  tau(   7) = (   0.5771561   0.0000000   3.3240144  )
         8           S   tau(   8) = (   1.1543123   0.0000000   3.7048867  )

     number of k points=   140

     Number of k-points >= 100: set verbosity='high' to print them.

     Dense  grid:    59367 G-vectors     FFT dimensions: (  32,  32, 144)

     Estimated max dynamical RAM per process >      38.43 MB

     Estimated total dynamical RAM >     691.82 MB

     Check: negative core charge=   -0.000004

     Initial potential from superposition of free atoms

     starting charge      35.9908, renormalised to      36.0000


     %%%%%%%%%%%%%%%%%%%%%%%%%%%%%%%%%%%%%%%%%%%%%%%%%%%%%%%%%%%%%%%%%%%%%%%%
     %                                                                      %
     % You are using vdW-DF, which was implemented by the Thonhauser group. %
     % Please cite the following two papers that made this development      %
     % possible and the two reviews that describe the various versions:     %
     %                                                                      %
     %   T. Thonhauser et al., PRL 115, 136402 (2015).                      %
     %   T. Thonhauser et al., PRB 76, 125112 (2007).                       %
     %   K. Berland et al., Rep. Prog. Phys. 78, 066501 (2015).             %
     %   D.C. Langreth et al., J. Phys.: Condens. Matter 21, 084203 (2009). %
     %                                                                      %
     %                                                                      %
     % If you are calculating the stress with vdW-DF, please also cite:     %
     %                                                                      %
     %   R. Sabatini et al., J. Phys.: Condens. Matter 24, 424209 (2012).   %
     %                                                                      %
     %%%%%%%%%%%%%%%%%%%%%%%%%%%%%%%%%%%%%%%%%%%%%%%%%%%%%%%%%%%%%%%%%%%%%%%%


     Starting wfcs are   32 randomized atomic wfcs
     Checking if some PAW data can be deallocated... 

     total cpu time spent up to now is        7.5 secs

     Self-consistent Calculation

     iteration #  1     ecut=    60.00 Ry     beta= 0.50
     Davidson diagonalization with overlap
     ethr =  1.00E-02,  avg # of iterations =  4.4

     total cpu time spent up to now is       17.9 secs

     total energy              =    -372.66882769 Ry
     estimated scf accuracy    <       1.25794687 Ry

     iteration #  2     ecut=    60.00 Ry     beta= 0.50
     Davidson diagonalization with overlap
     ethr =  3.49E-03,  avg # of iterations =  4.4

     total cpu time spent up to now is       27.8 secs

     total energy              =    -373.03465533 Ry
     estimated scf accuracy    <       0.68460322 Ry

     iteration #  3     ecut=    60.00 Ry     beta= 0.50
     Davidson diagonalization with overlap
     ethr =  1.90E-03,  avg # of iterations =  1.7

     total cpu time spent up to now is       35.2 secs

     total energy              =    -373.15014114 Ry
     estimated scf accuracy    <       0.04602994 Ry

     iteration #  4     ecut=    60.00 Ry     beta= 0.50
     Davidson diagonalization with overlap
     ethr =  1.28E-04,  avg # of iterations =  6.9

     total cpu time spent up to now is       48.7 secs

     total energy              =    -373.19630844 Ry
     estimated scf accuracy    <       0.01745596 Ry

     iteration #  5     ecut=    60.00 Ry     beta= 0.50
     Davidson diagonalization with overlap
     c_bands:  1 eigenvalues not converged
     c_bands:  1 eigenvalues not converged
     ethr =  4.85E-05,  avg # of iterations =  5.5

     total cpu time spent up to now is       57.9 secs

     total energy              =    -373.19748934 Ry
     estimated scf accuracy    <       0.00499246 Ry

     iteration #  6     ecut=    60.00 Ry     beta= 0.50
     Davidson diagonalization with overlap
     c_bands:  1 eigenvalues not converged
     c_bands:  1 eigenvalues not converged
     c_bands:  1 eigenvalues not converged
     c_bands:  1 eigenvalues not converged
     c_bands:  1 eigenvalues not converged
     c_bands:  1 eigenvalues not converged
     c_bands:  1 eigenvalues not converged
     c_bands:  1 eigenvalues not converged
     c_bands:  1 eigenvalues not converged
     c_bands:  1 eigenvalues not converged
     c_bands:  1 eigenvalues not converged
     c_bands:  1 eigenvalues not converged
     c_bands:  1 eigenvalues not converged
     c_bands:  1 eigenvalues not converged
     c_bands:  1 eigenvalues not converged
     c_bands:  1 eigenvalues not converged
     c_bands:  1 eigenvalues not converged
     c_bands:  1 eigenvalues not converged
     c_bands:  1 eigenvalues not converged
     ethr =  1.39E-05,  avg # of iterations = 10.9

     total cpu time spent up to now is       70.8 secs

     total energy              =    -373.19894714 Ry
     estimated scf accuracy    <       0.00260646 Ry

     iteration #  7     ecut=    60.00 Ry     beta= 0.50
     Davidson diagonalization with overlap
     c_bands:  1 eigenvalues not converged
     c_bands:  1 eigenvalues not converged
     c_bands:  1 eigenvalues not converged
     c_bands:  1 eigenvalues not converged
     c_bands:  1 eigenvalues not converged
     c_bands:  1 eigenvalues not converged
     c_bands:  1 eigenvalues not converged
     c_bands:  1 eigenvalues not converged
     c_bands:  1 eigenvalues not converged
     c_bands:  1 eigenvalues not converged
     ethr =  7.24E-06,  avg # of iterations =  6.8

     total cpu time spent up to now is       80.3 secs

     total energy              =    -373.19932945 Ry
     estimated scf accuracy    <       0.00039297 Ry

     iteration #  8     ecut=    60.00 Ry     beta= 0.50
     Davidson diagonalization with overlap
     c_bands:  1 eigenvalues not converged
     c_bands:  1 eigenvalues not converged
     c_bands:  1 eigenvalues not converged
     c_bands:  1 eigenvalues not converged
     c_bands:  2 eigenvalues not converged
     c_bands:  1 eigenvalues not converged
     c_bands:  1 eigenvalues not converged
     c_bands:  1 eigenvalues not converged
     c_bands:  1 eigenvalues not converged
     c_bands:  1 eigenvalues not converged
     c_bands:  1 eigenvalues not converged
     c_bands:  1 eigenvalues not converged
     c_bands:  1 eigenvalues not converged
     ethr =  1.09E-06,  avg # of iterations =  8.9

     total cpu time spent up to now is       90.4 secs

     total energy              =    -373.19935662 Ry
     estimated scf accuracy    <       0.00006679 Ry

     iteration #  9     ecut=    60.00 Ry     beta= 0.50
     Davidson diagonalization with overlap
     c_bands:  1 eigenvalues not converged
     c_bands:  1 eigenvalues not converged
     c_bands:  1 eigenvalues not converged
     ethr =  1.86E-07,  avg # of iterations =  4.7

     total cpu time spent up to now is      100.2 secs

     total energy              =    -373.19938110 Ry
     estimated scf accuracy    <       0.00000334 Ry

     iteration # 10     ecut=    60.00 Ry     beta= 0.50
     Davidson diagonalization with overlap
     c_bands:  1 eigenvalues not converged
     ethr =  9.28E-09,  avg # of iterations =  5.2

     total cpu time spent up to now is      112.3 secs

     total energy              =    -373.19938255 Ry
     estimated scf accuracy    <       0.00000891 Ry

     iteration # 11     ecut=    60.00 Ry     beta= 0.50
     Davidson diagonalization with overlap
     ethr =  9.28E-09,  avg # of iterations =  2.1

     total cpu time spent up to now is      120.3 secs

     total energy              =    -373.19938221 Ry
     estimated scf accuracy    <       0.00000191 Ry

     iteration # 12     ecut=    60.00 Ry     beta= 0.50
     Davidson diagonalization with overlap
     ethr =  5.30E-09,  avg # of iterations =  4.3

     total cpu time spent up to now is      131.4 secs

     total energy              =    -373.19938317 Ry
     estimated scf accuracy    <       0.00000078 Ry

     iteration # 13     ecut=    60.00 Ry     beta= 0.50
     Davidson diagonalization with overlap
     ethr =  2.16E-09,  avg # of iterations =  1.1

     total cpu time spent up to now is      138.6 secs

     total energy              =    -373.19938317 Ry
     estimated scf accuracy    <       0.00000012 Ry

     iteration # 14     ecut=    60.00 Ry     beta= 0.50
     Davidson diagonalization with overlap
     ethr =  3.28E-10,  avg # of iterations =  4.3

     total cpu time spent up to now is      149.5 secs

     total energy              =    -373.19938325 Ry
     estimated scf accuracy    <       0.00000008 Ry

     iteration # 15     ecut=    60.00 Ry     beta= 0.50
     Davidson diagonalization with overlap
     ethr =  2.33E-10,  avg # of iterations =  1.6

     total cpu time spent up to now is      156.9 secs

     End of self-consistent calculation

     Number of k-points >= 100: set verbosity='high' to print the bands.

     highest occupied, lowest unoccupied level (ev):     4.8519    6.1570

!    total energy              =    -373.19938325 Ry

     total all-electron energy =     -3839.666526 Ry
     estimated scf accuracy    <          7.8E-09 Ry

     The total energy is the sum of the following terms:
     one-electron contribution =     -33.34902053 Ry
     hartree contribution      =      35.97862114 Ry
     xc contribution           =     -35.87261353 Ry
     ewald contribution        =     -91.20344874 Ry
     one-center paw contrib.   =    -248.75292159 Ry

     convergence has been achieved in  15 iterations

     Writing all to output data dir ./work/Al2SO.save/
 
     init_run     :      6.26s CPU      7.33s WALL (       1 calls)
     electrons    :    111.58s CPU    149.37s WALL (       1 calls)

     Called by init_run:
     wfcinit      :      2.22s CPU      3.22s WALL (       1 calls)
     potinit      :      3.89s CPU      3.93s WALL (       1 calls)
     hinit0       :      0.11s CPU      0.12s WALL (       1 calls)

     Called by electrons:
     c_bands      :     98.28s CPU    130.19s WALL (      15 calls)
     sum_band     :     11.03s CPU     16.66s WALL (      15 calls)
     v_of_rho     :      4.31s CPU      4.47s WALL (      16 calls)
     newd         :      0.58s CPU      0.61s WALL (      16 calls)
     PAW_pot      :      1.23s CPU      1.32s WALL (      16 calls)
     mix_rho      :      0.04s CPU      0.04s WALL (      15 calls)
     vdW_kernel   :      3.76s CPU      3.76s WALL (       1 calls)

     Called by c_bands:
     init_us_2    :      1.20s CPU      1.45s WALL (    4340 calls)
     init_us_2:cp :      1.19s CPU      1.44s WALL (    4340 calls)
     cegterg      :     89.81s CPU    121.49s WALL (    2100 calls)

     Called by *egterg:
     cdiaghg      :      5.91s CPU      6.65s WALL (   12288 calls)
     h_psi        :     68.39s CPU     98.17s WALL (   12428 calls)
     s_psi        :      4.50s CPU      5.18s WALL (   12428 calls)
     g_psi        :      0.14s CPU      0.16s WALL (   10188 calls)

     Called by h_psi:
     h_psi:calbec :      7.87s CPU     11.12s WALL (   12428 calls)
     vloc_psi     :     52.00s CPU     76.62s WALL (   12428 calls)
     add_vuspsi   :      8.14s CPU     10.02s WALL (   12428 calls)

     General routines
     calbec       :      9.07s CPU     12.98s WALL (   14528 calls)
     fft          :      0.24s CPU      0.37s WALL (     976 calls)
     ffts         :      0.00s CPU      0.01s WALL (      15 calls)
     fftw         :     58.04s CPU     86.34s WALL (  351654 calls)
 
     Parallel routines
 
     PWSCF        :   1m58.40s CPU   2m38.01s WALL

 
   This run was terminated on:  14:36:14  11Jun2023            

=------------------------------------------------------------------------------=
   JOB DONE.
=------------------------------------------------------------------------------=
