
     Program PWSCF v.7.1 starts on 18Jun2023 at 14: 6:41 

     This program is part of the open-source Quantum ESPRESSO suite
     for quantum simulation of materials; please cite
         "P. Giannozzi et al., J. Phys.:Condens. Matter 21 395502 (2009);
         "P. Giannozzi et al., J. Phys.:Condens. Matter 29 465901 (2017);
         "P. Giannozzi et al., J. Chem. Phys. 152 154105 (2020);
          URL http://www.quantum-espresso.org", 
     in publications or presentations arising from this work. More details at
     http://www.quantum-espresso.org/quote

     Parallel version (MPI), running on    16 processors

     MPI processes distributed on     1 nodes
     51073 MiB available memory on the printing compute node when the environment starts
 
     Waiting for input...
     Reading input from standard input

     Current dimensions of program PWSCF are:
     Max number of different atomic species (ntypx) = 10
     Max number of k-points (npk) =  40000
     Max angular momentum in pseudopotentials (lmaxx) =  4
     Message from routine volume:
     axis vectors are left-handed
     file Al.pbe-n-kjpaw_psl.1.0.0.UPF: wavefunction(s)  3S 3P renormalized
     file O.pbe-n-kjpaw_psl.1.0.0.UPF: wavefunction(s)  2S 2P renormalized

     IMPORTANT: XC functional enforced from input :
     Exchange-correlation= VDW-DF2-B86R
                           (   1   4  26   0   2   0   0)
     Any further DFT definition will be discarded
     Please, verify this is what you really want

     Message from routine setup:
     using ibrav=0 with symmetry is DISCOURAGED, use correct ibrav instead
 
     R & G space division:  proc/nbgrp/npool/nimage =      16
     Subspace diagonalization in iterative solution of the eigenvalue problem:
     a serial algorithm will be used

 
     Parallelization info
     --------------------
     sticks:   dense  smooth     PW     G-vecs:    dense   smooth      PW
     Min          39      39     12                 2861     2861     504
     Max          40      40     13                 2867     2867     517
     Sum         625     625    199                45819    45819    8147
 
     Using Slab Decomposition
 


     bravais-lattice index     =            0
     lattice parameter (alat)  =       6.1344  a.u.
     unit-cell volume          =     729.9027 (a.u.)^3
     number of atoms/cell      =            8
     number of atomic types    =            2
     number of electrons       =        36.00
     number of Kohn-Sham states=           70
     kinetic-energy cutoff     =      60.0000  Ry
     charge density cutoff     =     240.0000  Ry
     scf convergence threshold =      1.0E-08
     mixing beta               =       0.5000
     number of iterations used =            8  plain     mixing
     Exchange-correlation= VDW-DF2-B86R
                           (   1   4  26   0   2   0   0)

     celldm(1)=   6.134387  celldm(2)=   0.000000  celldm(3)=   0.000000
     celldm(4)=   0.000000  celldm(5)=   0.000000  celldm(6)=   0.000000

     crystal axes: (cart. coord. in units of alat)
               a(1) = (   0.865734   0.500504   0.000000 )  
               a(2) = (   0.865734  -0.500504   0.000000 )  
               a(3) = (   0.000000   0.000000   3.648627 )  

     reciprocal axes: (cart. coord. in units 2 pi/alat)
               b(1) = (  0.577544  0.998993  0.000000 )  
               b(2) = (  0.577544 -0.998993  0.000000 )  
               b(3) = (  0.000000  0.000000  0.274076 )  


     PseudoPot. # 1 for Al read from file:
     /home/mainadmin/research/danu/pseudo/Al.pbe-n-kjpaw_psl.1.0.0.UPF
     MD5 check sum: 502b6b27b9c6270cab5dd1084b96fa6d
     Pseudo is Projector augmented-wave + core cor, Zval =  3.0
     Generated using &quot;atomic&quot; code by A. Dal Corso  v.6.3
     Shape of augmentation charge: PSQ
     Using radial grid of 1135 points,  6 beta functions with: 
                l(1) =   0
                l(2) =   0
                l(3) =   1
                l(4) =   1
                l(5) =   2
                l(6) =   2
     Q(r) pseudized with 0 coefficients 


     PseudoPot. # 2 for O  read from file:
     /home/mainadmin/research/danu/pseudo/O.pbe-n-kjpaw_psl.1.0.0.UPF
     MD5 check sum: e99d9cef9b487d1ca56f5b95ecd0fd7a
     Pseudo is Projector augmented-wave + core cor, Zval =  6.0
     Generated using &quot;atomic&quot; code by A. Dal Corso  v.6.3
     Shape of augmentation charge: PSQ
     Using radial grid of 1095 points,  4 beta functions with: 
                l(1) =   0
                l(2) =   0
                l(3) =   1
                l(4) =   1
     Q(r) pseudized with 0 coefficients 


     atomic species   valence    mass     pseudopotential
        Al             3.00    26.98100     Al( 1.00)
        O              6.00    15.99900     O ( 1.00)

      2 Sym. Ops. (no inversion) found



   Cartesian axes

     site n.     atom                  positions (alat units)
         1           O   tau(   1) = (   0.5771561   0.0000000   0.0000000  )
         2           Al  tau(   2) = (   0.0000000   0.0000000   0.1680310  )
         3           Al  tau(   3) = (   0.0000000   0.0000000   0.9717503  )
         4           O   tau(   4) = (   0.5771561   0.0000000   1.1392179  )
         5           O   tau(   5) = (   1.1543123   0.0000000   1.8342314  )
         6           Al  tau(   6) = (   0.5771561   0.0000000   1.9928095  )
         7           Al  tau(   7) = (   0.5771561   0.0000000   2.7951295  )
         8           O   tau(   8) = (   1.1543123   0.0000000   2.9547128  )

     number of k points=   140

     Number of k-points >= 100: set verbosity='high' to print them.

     Dense  grid:    45819 G-vectors     FFT dimensions: (  32,  32, 120)

     Estimated max dynamical RAM per process >      67.11 MB

     Estimated total dynamical RAM >       1.05 GB

     Check: negative core charge=   -0.000006

     Initial potential from superposition of free atoms

     starting charge      35.9908, renormalised to      36.0000


     %%%%%%%%%%%%%%%%%%%%%%%%%%%%%%%%%%%%%%%%%%%%%%%%%%%%%%%%%%%%%%%%%%%%%%%%
     %                                                                      %
     % You are using vdW-DF, which was implemented by the Thonhauser group. %
     % Please cite the following two papers that made this development      %
     % possible and the two reviews that describe the various versions:     %
     %                                                                      %
     %   T. Thonhauser et al., PRL 115, 136402 (2015).                      %
     %   T. Thonhauser et al., PRB 76, 125112 (2007).                       %
     %   K. Berland et al., Rep. Prog. Phys. 78, 066501 (2015).             %
     %   D.C. Langreth et al., J. Phys.: Condens. Matter 21, 084203 (2009). %
     %                                                                      %
     % If you are calculating stress with vdW-DF, please also cite:         %
     %                                                                      %
     %   R. Sabatini et al., J. Phys.: Condens. Matter 24, 424209 (2012).   %
     %                                                                      %
     %%%%%%%%%%%%%%%%%%%%%%%%%%%%%%%%%%%%%%%%%%%%%%%%%%%%%%%%%%%%%%%%%%%%%%%%

     %%%%%%%%%%%%%%%%%%%%%%%%%%%%%%%%%%%%%%%%%%%%%%%%%%%%%%%%%%%%%%%%%%%%%%%%
     %                                                                      %
     %  vdW-DF NEWS:                                                        %
     %                                                                      %
     %  * vdW-DF3 is now available. DOI: 10.1021/acs.jctc.0c00471           %
     %    use with input_dft = 'vdW-DF3-opt1' or 'vdW-DF3-opt2'             %
     %                                                                      %
     %  * Unscreened and range-separated vdW-DF hybrid functionals          %
     %    DOI: 10.1063/1.4986522 and 10.1088/1361-648X/ac2ad2               %
     %    use with input_dft = 'vdW-DF-cx0' (etc) and 'vdW-DF-ahcx'         %
     %                                                                      %
     %%%%%%%%%%%%%%%%%%%%%%%%%%%%%%%%%%%%%%%%%%%%%%%%%%%%%%%%%%%%%%%%%%%%%%%%


     Starting wfcs are   32 randomized atomic wfcs +   38 random wfcs
     Checking if some PAW data can be deallocated... 

     total cpu time spent up to now is       10.6 secs

     Self-consistent Calculation

     iteration #  1     ecut=    60.00 Ry     beta= 0.50
     Davidson diagonalization with overlap
     ethr =  1.00E-02,  avg # of iterations =  8.3

     total cpu time spent up to now is       59.9 secs

     total energy              =    -323.85001305 Ry
     estimated scf accuracy    <       1.80313157 Ry

     iteration #  2     ecut=    60.00 Ry     beta= 0.50
     Davidson diagonalization with overlap
     ethr =  5.01E-03,  avg # of iterations =  1.0

     total cpu time spent up to now is       76.8 secs

     total energy              =    -324.28077349 Ry
     estimated scf accuracy    <       0.76236708 Ry

     iteration #  3     ecut=    60.00 Ry     beta= 0.50
     Davidson diagonalization with overlap
     ethr =  2.12E-03,  avg # of iterations =  1.2

     total cpu time spent up to now is       93.9 secs

     total energy              =    -324.44885894 Ry
     estimated scf accuracy    <       0.02830064 Ry

     iteration #  4     ecut=    60.00 Ry     beta= 0.50
     Davidson diagonalization with overlap
     ethr =  7.86E-05,  avg # of iterations =  8.1

     total cpu time spent up to now is      119.8 secs

     total energy              =    -324.46095219 Ry
     estimated scf accuracy    <       0.00439808 Ry

     iteration #  5     ecut=    60.00 Ry     beta= 0.50
     Davidson diagonalization with overlap
     ethr =  1.22E-05,  avg # of iterations =  4.3

     total cpu time spent up to now is      142.6 secs

     total energy              =    -324.46169962 Ry
     estimated scf accuracy    <       0.00127306 Ry

     iteration #  6     ecut=    60.00 Ry     beta= 0.50
     Davidson diagonalization with overlap
     ethr =  3.54E-06,  avg # of iterations =  2.6

     total cpu time spent up to now is      161.9 secs

     total energy              =    -324.46198713 Ry
     estimated scf accuracy    <       0.00017880 Ry

     iteration #  7     ecut=    60.00 Ry     beta= 0.50
     Davidson diagonalization with overlap
     c_bands:  1 eigenvalues not converged
     ethr =  4.97E-07,  avg # of iterations =  2.5

     total cpu time spent up to now is      181.5 secs

     total energy              =    -324.46204032 Ry
     estimated scf accuracy    <       0.00001607 Ry

     iteration #  8     ecut=    60.00 Ry     beta= 0.50
     Davidson diagonalization with overlap
     ethr =  4.46E-08,  avg # of iterations =  3.5

     total cpu time spent up to now is      202.4 secs

     total energy              =    -324.46204822 Ry
     estimated scf accuracy    <       0.00000289 Ry

     iteration #  9     ecut=    60.00 Ry     beta= 0.50
     Davidson diagonalization with overlap
     ethr =  8.01E-09,  avg # of iterations =  3.3

     total cpu time spent up to now is      222.9 secs

     total energy              =    -324.46204933 Ry
     estimated scf accuracy    <       0.00000029 Ry

     iteration # 10     ecut=    60.00 Ry     beta= 0.50
     Davidson diagonalization with overlap
     ethr =  8.14E-10,  avg # of iterations =  3.3

     total cpu time spent up to now is      243.7 secs

     total energy              =    -324.46204945 Ry
     estimated scf accuracy    <       0.00000007 Ry

     iteration # 11     ecut=    60.00 Ry     beta= 0.50
     Davidson diagonalization with overlap
     ethr =  1.99E-10,  avg # of iterations =  1.9

     total cpu time spent up to now is      262.3 secs

     End of self-consistent calculation

     Number of k-points >= 100: set verbosity='high' to print the bands.

     highest occupied, lowest unoccupied level (ev):     6.3137    6.4330

!    total energy              =    -324.46204946 Ry
     total all-electron energy =     -2544.420731 Ry
     estimated scf accuracy    <          9.7E-09 Ry

     The total energy is the sum of the following terms:
     one-electron contribution =     -56.92781078 Ry
     hartree contribution      =      50.18816490 Ry
     xc contribution           =     -40.45829210 Ry
     ewald contribution        =    -101.34715875 Ry
     one-center paw contrib.   =    -175.91695273 Ry

     convergence has been achieved in  11 iterations

     Writing all to output data dir ./work/Al2O2.save/
 
     init_run     :      8.45s CPU     10.53s WALL (       1 calls)
     electrons    :    188.84s CPU    251.63s WALL (       1 calls)

     Called by init_run:
     wfcinit      :      3.91s CPU      5.95s WALL (       1 calls)
     potinit      :      4.45s CPU      4.48s WALL (       1 calls)
     hinit0       :      0.06s CPU      0.07s WALL (       1 calls)

     Called by electrons:
     c_bands      :    169.55s CPU    222.35s WALL (      11 calls)
     sum_band     :     18.01s CPU     27.84s WALL (      11 calls)
     v_of_rho     :      4.68s CPU      4.79s WALL (      12 calls)
     newd         :      0.20s CPU      0.21s WALL (      12 calls)
     PAW_pot      :      0.82s CPU      0.89s WALL (      12 calls)
     mix_rho      :      0.01s CPU      0.02s WALL (      11 calls)
     vdW_kernel   :      4.34s CPU      4.35s WALL (       1 calls)

     Called by c_bands:
     init_us_2    :      0.86s CPU      0.95s WALL (    3220 calls)
     init_us_2:cp :      0.85s CPU      0.95s WALL (    3220 calls)
     cegterg      :    164.24s CPU    216.98s WALL (    1540 calls)

     Called by *egterg:
     cdiaghg      :     28.78s CPU     29.82s WALL (    7161 calls)
     h_psi        :     96.96s CPU    147.69s WALL (    7301 calls)
     s_psi        :      5.05s CPU      5.63s WALL (    7301 calls)
     g_psi        :      0.20s CPU      0.20s WALL (    5621 calls)

     Called by h_psi:
     h_psi:calbec :      6.76s CPU      9.41s WALL (    7301 calls)
     vloc_psi     :     83.29s CPU    130.20s WALL (    7301 calls)
     add_vuspsi   :      6.20s CPU      7.34s WALL (    7301 calls)

     General routines
     calbec       :      8.26s CPU     11.53s WALL (    8841 calls)
     fft          :      0.16s CPU      0.24s WALL (     732 calls)
     ffts         :      0.00s CPU      0.00s WALL (      11 calls)
     fftw         :     94.96s CPU    148.86s WALL (  668410 calls)
 
     Parallel routines
 
     PWSCF        :   3m18.18s CPU   4m24.66s WALL

 
   This run was terminated on:  14:11: 6  18Jun2023            

=------------------------------------------------------------------------------=
   JOB DONE.
=------------------------------------------------------------------------------=
