
     Program BANDS v.7.1 starts on 18Jun2023 at 14:14:29 

     This program is part of the open-source Quantum ESPRESSO suite
     for quantum simulation of materials; please cite
         "P. Giannozzi et al., J. Phys.:Condens. Matter 21 395502 (2009);
         "P. Giannozzi et al., J. Phys.:Condens. Matter 29 465901 (2017);
         "P. Giannozzi et al., J. Chem. Phys. 152 154105 (2020);
          URL http://www.quantum-espresso.org", 
     in publications or presentations arising from this work. More details at
     http://www.quantum-espresso.org/quote

     Parallel version (MPI), running on    16 processors

     MPI processes distributed on     1 nodes
     R & G space division:  proc/nbgrp/npool/nimage =      16
     49509 MiB available memory on the printing compute node when the environment starts
 

     Reading xml data from directory:

     ./work/Al2O2.save/
     Message from routine volume:
     axis vectors are left-handed
     file Al.pbe-n-kjpaw_psl.1.0.0.UPF: wavefunction(s)  3S 3P renormalized
     file O.pbe-n-kjpaw_psl.1.0.0.UPF: wavefunction(s)  2S 2P renormalized

     IMPORTANT: XC functional enforced from input :
     Exchange-correlation= VDW-DF2-B86R
                           (   1   4  26   0   2   0   0)
     Any further DFT definition will be discarded
     Please, verify this is what you really want

 
     Parallelization info
     --------------------
     sticks:   dense  smooth     PW     G-vecs:    dense   smooth      PW
     Min          39      39     11                 2861     2861     453
     Max          40      40     12                 2867     2867     464
     Sum         625     625    187                45819    45819    7367
 
     Using Slab Decomposition
 

     Check: negative core charge=   -0.000006


     %%%%%%%%%%%%%%%%%%%%%%%%%%%%%%%%%%%%%%%%%%%%%%%%%%%%%%%%%%%%%%%%%%%%%%%%
     %                                                                      %
     % You are using vdW-DF, which was implemented by the Thonhauser group. %
     % Please cite the following two papers that made this development      %
     % possible and the two reviews that describe the various versions:     %
     %                                                                      %
     %   T. Thonhauser et al., PRL 115, 136402 (2015).                      %
     %   T. Thonhauser et al., PRB 76, 125112 (2007).                       %
     %   K. Berland et al., Rep. Prog. Phys. 78, 066501 (2015).             %
     %   D.C. Langreth et al., J. Phys.: Condens. Matter 21, 084203 (2009). %
     %                                                                      %
     % If you are calculating stress with vdW-DF, please also cite:         %
     %                                                                      %
     %   R. Sabatini et al., J. Phys.: Condens. Matter 24, 424209 (2012).   %
     %                                                                      %
     %%%%%%%%%%%%%%%%%%%%%%%%%%%%%%%%%%%%%%%%%%%%%%%%%%%%%%%%%%%%%%%%%%%%%%%%

     %%%%%%%%%%%%%%%%%%%%%%%%%%%%%%%%%%%%%%%%%%%%%%%%%%%%%%%%%%%%%%%%%%%%%%%%
     %                                                                      %
     %  vdW-DF NEWS:                                                        %
     %                                                                      %
     %  * vdW-DF3 is now available. DOI: 10.1021/acs.jctc.0c00471           %
     %    use with input_dft = 'vdW-DF3-opt1' or 'vdW-DF3-opt2'             %
     %                                                                      %
     %  * Unscreened and range-separated vdW-DF hybrid functionals          %
     %    DOI: 10.1063/1.4986522 and 10.1088/1361-648X/ac2ad2               %
     %    use with input_dft = 'vdW-DF-cx0' (etc) and 'vdW-DF-ahcx'         %
     %                                                                      %
     %%%%%%%%%%%%%%%%%%%%%%%%%%%%%%%%%%%%%%%%%%%%%%%%%%%%%%%%%%%%%%%%%%%%%%%%


     Reading collected, re-writing distributed wavefunctions
     high-symmetry point:  0.0000 0.0000 0.0000   x coordinate   0.0000
     high-symmetry point:  0.5775 0.3325 0.0000   x coordinate   0.6664
     high-symmetry point:  0.5775 0.0000 0.0000   x coordinate   0.9990
     high-symmetry point:  0.0000 0.0000 0.0000   x coordinate   1.5765

     Plottable bands (eV) written to file AB.bands.gnu
     Bands written to file AB.bands

 **************************************************************************

                    xk=(   0.00000,   0.00000,   0.00000  )

     point group C_s (m)    
     there are  2 classes
     the character table:

       E     s    
A'     1.00  1.00
A''    1.00 -1.00

     the symmetry operations in each class and the name of the first element:

     E        1
                                                                 
     s        2
                                                                 

     Band symmetry, C_s (m)     point group:

     e(  1 -  1) =    -13.76847  eV     1   --> A'             
     e(  2 -  2) =    -13.69569  eV     1   --> A'             
     e(  3 -  3) =    -13.01337  eV     1   --> A'             
     e(  4 -  4) =    -12.92659  eV     1   --> A'             
     e(  5 -  5) =     -0.77634  eV     1   --> A'             
     e(  6 -  6) =      0.20635  eV     1   --> A'             
     e(  7 -  7) =      0.78460  eV     1   --> A'             
     e(  8 -  8) =      1.35782  eV     1   --> A''            
     e(  9 -  9) =      1.36135  eV     1   --> A'             
     e( 10 - 10) =      1.40216  eV     1   --> A''            
     e( 11 - 11) =      1.40554  eV     1   --> A'             
     e( 12 - 12) =      1.92559  eV     1   --> A''            
     e( 13 - 13) =      1.92911  eV     1   --> A'             
     e( 14 - 14) =      1.97558  eV     1   --> A''            
     e( 15 - 15) =      1.97895  eV     1   --> A'             
     e( 16 - 16) =      2.64098  eV     1   --> A'             
     e( 17 - 17) =      3.28775  eV     1   --> A'             
     e( 18 - 18) =      5.44297  eV     1   --> A'             
     e( 19 - 19) =      6.43290  eV     1   --> A'             
     e( 20 - 20) =      8.27023  eV     1   --> A'             
     e( 21 - 21) =      9.24685  eV     1   --> A'             
     e( 22 - 22) =     10.26219  eV     1   --> A'             
     e( 23 - 23) =     13.87577  eV     1   --> A'             
     e( 24 - 24) =     14.01750  eV     1   --> A''            
     e( 25 - 25) =     14.03784  eV     1   --> A'             
     e( 26 - 26) =     14.61094  eV     1   --> A''            
     e( 27 - 27) =     14.63112  eV     1   --> A'             
     e( 28 - 28) =     15.23504  eV     1   --> A'             
     e( 29 - 29) =     15.41180  eV     1   --> A''            
     e( 30 - 30) =     15.43302  eV     1   --> A'             
     e( 31 - 31) =     16.15835  eV     1   --> A''            
     e( 32 - 32) =     16.17939  eV     1   --> A'             
     e( 33 - 33) =     16.81327  eV     1   --> A'             
     e( 34 - 34) =     17.69863  eV     1   --> A'             
     e( 35 - 35) =     18.43743  eV     1   --> A''            
     e( 36 - 36) =     18.45735  eV     1   --> A'             
     e( 37 - 37) =     19.29545  eV     1   --> A''            
     e( 38 - 38) =     19.31599  eV     1   --> A'             
     e( 39 - 39) =     19.84877  eV     1   --> A'             
     e( 40 - 40) =     21.08687  eV     1   --> A'             
     e( 41 - 41) =     21.34860  eV     1   --> A''            
     e( 42 - 42) =     21.37359  eV     1   --> A'             
     e( 43 - 43) =     21.92494  eV     1   --> A'             
     e( 44 - 44) =     22.38508  eV     1   --> A'             
     e( 45 - 45) =     22.42904  eV     1   --> A''            
     e( 46 - 46) =     22.45344  eV     1   --> A'             
     e( 47 - 47) =     23.05398  eV     1   --> A''            
     e( 48 - 48) =     23.07229  eV     1   --> A'             
     e( 49 - 49) =     23.27903  eV     1   --> A'             
     e( 50 - 50) =     24.05191  eV     1   --> A''            
     e( 51 - 51) =     24.07146  eV     1   --> A'             
     e( 52 - 52) =     24.18151  eV     1   --> A'             
     e( 53 - 53) =     25.40743  eV     1   --> A''            
     e( 54 - 54) =     25.41843  eV     1   --> A'             
     e( 55 - 55) =     25.43364  eV     1   --> A'             
     e( 56 - 56) =     26.57288  eV     1   --> A'             
     e( 57 - 57) =     26.66505  eV     1   --> A''            
     e( 58 - 58) =     26.69346  eV     1   --> A'             
     e( 59 - 59) =     27.41551  eV     1   --> A'             
     e( 60 - 60) =     28.74141  eV     1   --> A''            
     e( 61 - 61) =     28.76932  eV     1   --> A'             
     e( 62 - 62) =     30.01630  eV     1   --> A'             
     e( 63 - 63) =     30.45877  eV     1   --> A''            
     e( 64 - 64) =     30.48423  eV     1   --> A'             
     e( 65 - 65) =     30.89402  eV     1   --> A''            
     e( 66 - 66) =     30.91920  eV     1   --> A'             
     e( 67 - 67) =     32.01622  eV     1   --> A'             
     e( 68 - 68) =     33.50012  eV     1   --> A'             
     e( 69 - 69) =     33.57723  eV     1   --> A''            
     e( 70 - 70) =     33.60270  eV     1   --> A'             

 **************************************************************************

 **************************************************************************

                    xk=(   0.01925,   0.01108,   0.00000  )

     point group C_1 (1)    
     there are  1 classes
     the character table:

       E    
A      1.00

     the symmetry operations in each class and the name of the first element:

     E        1
                                                                 

     Band symmetry, C_1 (1)     point group:

     e(  1 -  1) =    -13.76639  eV     1   --> A              
     e(  2 -  2) =    -13.69369  eV     1   --> A              
     e(  3 -  3) =    -13.01171  eV     1   --> A              
     e(  4 -  4) =    -12.92504  eV     1   --> A              
     e(  5 -  5) =     -0.77253  eV     1   --> A              
     e(  6 -  6) =      0.20349  eV     1   --> A              
     e(  7 -  7) =      0.78597  eV     1   --> A              
     e(  8 -  8) =      1.35053  eV     1   --> A              
     e(  9 -  9) =      1.35659  eV     1   --> A              
     e( 10 - 10) =      1.38708  eV     1   --> A              
     e( 11 - 11) =      1.40075  eV     1   --> A              
     e( 12 - 12) =      1.90524  eV     1   --> A              
     e( 13 - 13) =      1.92476  eV     1   --> A              
     e( 14 - 14) =      1.96240  eV     1   --> A              
     e( 15 - 15) =      1.97489  eV     1   --> A              
     e( 16 - 16) =      2.64844  eV     1   --> A              
     e( 17 - 17) =      3.31452  eV     1   --> A              
     e( 18 - 18) =      5.44413  eV     1   --> A              
     e( 19 - 19) =      6.45320  eV     1   --> A              
     e( 20 - 20) =      8.28419  eV     1   --> A              
     e( 21 - 21) =      9.25321  eV     1   --> A              
     e( 22 - 22) =     10.27312  eV     1   --> A              
     e( 23 - 23) =     13.86352  eV     1   --> A              
     e( 24 - 24) =     13.97822  eV     1   --> A              
     e( 25 - 25) =     14.02632  eV     1   --> A              
     e( 26 - 26) =     14.57680  eV     1   --> A              
     e( 27 - 27) =     14.62066  eV     1   --> A              
     e( 28 - 28) =     15.21013  eV     1   --> A              
     e( 29 - 29) =     15.41671  eV     1   --> A              
     e( 30 - 30) =     15.43471  eV     1   --> A              
     e( 31 - 31) =     16.15969  eV     1   --> A              
     e( 32 - 32) =     16.17891  eV     1   --> A              
     e( 33 - 33) =     16.84211  eV     1   --> A              
     e( 34 - 34) =     17.73320  eV     1   --> A              
     e( 35 - 35) =     18.39841  eV     1   --> A              
     e( 36 - 36) =     18.42674  eV     1   --> A              
     e( 37 - 37) =     19.24579  eV     1   --> A              
     e( 38 - 38) =     19.30118  eV     1   --> A              
     e( 39 - 39) =     19.92457  eV     1   --> A              
     e( 40 - 40) =     21.11942  eV     1   --> A              
     e( 41 - 41) =     21.30886  eV     1   --> A              
     e( 42 - 42) =     21.38470  eV     1   --> A              
     e( 43 - 43) =     22.02399  eV     1   --> A              
     e( 44 - 44) =     22.39767  eV     1   --> A              
     e( 45 - 45) =     22.41829  eV     1   --> A              
     e( 46 - 46) =     22.46340  eV     1   --> A              
     e( 47 - 47) =     23.00668  eV     1   --> A              
     e( 48 - 48) =     23.02639  eV     1   --> A              
     e( 49 - 49) =     23.29522  eV     1   --> A              
     e( 50 - 50) =     24.07112  eV     1   --> A              
     e( 51 - 51) =     24.08946  eV     1   --> A              
     e( 52 - 52) =     24.23026  eV     1   --> A              
     e( 53 - 53) =     25.41479  eV     1   --> A              
     e( 54 - 54) =     25.44299  eV     1   --> A              
     e( 55 - 55) =     25.46111  eV     1   --> A              
     e( 56 - 56) =     26.58866  eV     1   --> A              
     e( 57 - 57) =     26.66842  eV     1   --> A              
     e( 58 - 58) =     26.69443  eV     1   --> A              
     e( 59 - 59) =     27.40387  eV     1   --> A              
     e( 60 - 60) =     28.72933  eV     1   --> A              
     e( 61 - 61) =     28.77658  eV     1   --> A              
     e( 62 - 62) =     30.02879  eV     1   --> A              
     e( 63 - 63) =     30.46476  eV     1   --> A              
     e( 64 - 64) =     30.49274  eV     1   --> A              
     e( 65 - 65) =     30.89613  eV     1   --> A              
     e( 66 - 66) =     30.92066  eV     1   --> A              
     e( 67 - 67) =     32.04782  eV     1   --> A              
     e( 68 - 68) =     33.48671  eV     1   --> A              
     e( 69 - 69) =     33.57409  eV     1   --> A              
     e( 70 - 70) =     33.59622  eV     1   --> A              

 **************************************************************************

 **************************************************************************

                    xk=(   0.03850,   0.02217,   0.00000  )

     Band symmetry, C_1 (1)     point group:

     e(  1 -  1) =    -13.76017  eV     1   --> A              
     e(  2 -  2) =    -13.68774  eV     1   --> A              
     e(  3 -  3) =    -13.00672  eV     1   --> A              
     e(  4 -  4) =    -12.92042  eV     1   --> A              
     e(  5 -  5) =     -0.76127  eV     1   --> A              
     e(  6 -  6) =      0.19473  eV     1   --> A              
     e(  7 -  7) =      0.78974  eV     1   --> A              
     e(  8 -  8) =      1.31977  eV     1   --> A              
     e(  9 -  9) =      1.33783  eV     1   --> A              
     e( 10 - 10) =      1.34886  eV     1   --> A              
     e( 11 - 11) =      1.39331  eV     1   --> A              
     e( 12 - 12) =      1.84461  eV     1   --> A              
     e( 13 - 13) =      1.91804  eV     1   --> A              
     e( 14 - 14) =      1.91925  eV     1   --> A              
     e( 15 - 15) =      1.96954  eV     1   --> A              
     e( 16 - 16) =      2.66909  eV     1   --> A              
     e( 17 - 17) =      3.38855  eV     1   --> A              
     e( 18 - 18) =      5.44747  eV     1   --> A              
     e( 19 - 19) =      6.51303  eV     1   --> A              
     e( 20 - 20) =      8.32562  eV     1   --> A              
     e( 21 - 21) =      9.27201  eV     1   --> A              
     e( 22 - 22) =     10.30564  eV     1   --> A              
     e( 23 - 23) =     13.82648  eV     1   --> A              
     e( 24 - 24) =     13.83184  eV     1   --> A              
     e( 25 - 25) =     14.03059  eV     1   --> A              
     e( 26 - 26) =     14.44432  eV     1   --> A              
     e( 27 - 27) =     14.62727  eV     1   --> A              
     e( 28 - 28) =     15.14281  eV     1   --> A              
     e( 29 - 29) =     15.40765  eV     1   --> A              
     e( 30 - 30) =     15.45742  eV     1   --> A              
     e( 31 - 31) =     16.14199  eV     1   --> A              
     e( 32 - 32) =     16.20114  eV     1   --> A              
     e( 33 - 33) =     16.90965  eV     1   --> A              
     e( 34 - 34) =     17.82482  eV     1   --> A              
     e( 35 - 35) =     18.27166  eV     1   --> A              
     e( 36 - 36) =     18.37114  eV     1   --> A              
     e( 37 - 37) =     19.11752  eV     1   --> A              
     e( 38 - 38) =     19.29189  eV     1   --> A              
     e( 39 - 39) =     20.09261  eV     1   --> A              
     e( 40 - 40) =     21.20414  eV     1   --> A              
     e( 41 - 41) =     21.21407  eV     1   --> A              
     e( 42 - 42) =     21.45861  eV     1   --> A              
     e( 43 - 43) =     22.24995  eV     1   --> A              
     e( 44 - 44) =     22.35404  eV     1   --> A              
     e( 45 - 45) =     22.42588  eV     1   --> A              
     e( 46 - 46) =     22.54396  eV     1   --> A              
     e( 47 - 47) =     22.87961  eV     1   --> A              
     e( 48 - 48) =     22.91400  eV     1   --> A              
     e( 49 - 49) =     23.34462  eV     1   --> A              
     e( 50 - 50) =     24.11096  eV     1   --> A              
     e( 51 - 51) =     24.12825  eV     1   --> A              
     e( 52 - 52) =     24.36573  eV     1   --> A              
     e( 53 - 53) =     25.40383  eV     1   --> A              
     e( 54 - 54) =     25.51030  eV     1   --> A              
     e( 55 - 55) =     25.58568  eV     1   --> A              
     e( 56 - 56) =     26.62730  eV     1   --> A              
     e( 57 - 57) =     26.64875  eV     1   --> A              
     e( 58 - 58) =     26.72706  eV     1   --> A              
     e( 59 - 59) =     27.38031  eV     1   --> A              
     e( 60 - 60) =     28.68463  eV     1   --> A              
     e( 61 - 61) =     28.80654  eV     1   --> A              
     e( 62 - 62) =     30.04158  eV     1   --> A              
     e( 63 - 63) =     30.48031  eV     1   --> A              
     e( 64 - 64) =     30.54532  eV     1   --> A              
     e( 65 - 65) =     30.87206  eV     1   --> A              
     e( 66 - 66) =     30.95386  eV     1   --> A              
     e( 67 - 67) =     32.13705  eV     1   --> A              
     e( 68 - 68) =     33.45208  eV     1   --> A              
     e( 69 - 69) =     33.54947  eV     1   --> A              
     e( 70 - 70) =     33.59681  eV     1   --> A              

 **************************************************************************

 **************************************************************************

                    xk=(   0.05775,   0.03325,   0.00000  )

     Band symmetry, C_1 (1)     point group:

     e(  1 -  1) =    -13.74987  eV     1   --> A              
     e(  2 -  2) =    -13.67789  eV     1   --> A              
     e(  3 -  3) =    -12.99848  eV     1   --> A              
     e(  4 -  4) =    -12.91279  eV     1   --> A              
     e(  5 -  5) =     -0.74296  eV     1   --> A              
     e(  6 -  6) =      0.17959  eV     1   --> A              
     e(  7 -  7) =      0.79487  eV     1   --> A              
     e(  8 -  8) =      1.25078  eV     1   --> A              
     e(  9 -  9) =      1.27342  eV     1   --> A              
     e( 10 - 10) =      1.33652  eV     1   --> A              
     e( 11 - 11) =      1.38071  eV     1   --> A              
     e( 12 - 12) =      1.76536  eV     1   --> A              
     e( 13 - 13) =      1.85032  eV     1   --> A              
     e( 14 - 14) =      1.90965  eV     1   --> A              
     e( 15 - 15) =      1.96054  eV     1   --> A              
     e( 16 - 16) =      2.69914  eV     1   --> A              
     e( 17 - 17) =      3.49610  eV     1   --> A              
     e( 18 - 18) =      5.45274  eV     1   --> A              
     e( 19 - 19) =      6.60946  eV     1   --> A              
     e( 20 - 20) =      8.39330  eV     1   --> A              
     e( 21 - 21) =      9.30247  eV     1   --> A              
     e( 22 - 22) =     10.35904  eV     1   --> A              
     e( 23 - 23) =     13.61352  eV     1   --> A              
     e( 24 - 24) =     13.76510  eV     1   --> A              
     e( 25 - 25) =     14.03582  eV     1   --> A              
     e( 26 - 26) =     14.24603  eV     1   --> A              
     e( 27 - 27) =     14.63851  eV     1   --> A              
     e( 28 - 28) =     15.04552  eV     1   --> A              
     e( 29 - 29) =     15.37249  eV     1   --> A              
     e( 30 - 30) =     15.50466  eV     1   --> A              
     e( 31 - 31) =     16.11107  eV     1   --> A              
     e( 32 - 32) =     16.24525  eV     1   --> A              
     e( 33 - 33) =     16.96611  eV     1   --> A              
     e( 34 - 34) =     17.94143  eV     1   --> A              
     e( 35 - 35) =     18.11008  eV     1   --> A              
     e( 36 - 36) =     18.29468  eV     1   --> A              
     e( 37 - 37) =     19.00018  eV     1   --> A              
     e( 38 - 38) =     19.26580  eV     1   --> A              
     e( 39 - 39) =     20.29125  eV     1   --> A              
     e( 40 - 40) =     21.11749  eV     1   --> A              
     e( 41 - 41) =     21.35548  eV     1   --> A              
     e( 42 - 42) =     21.55862  eV     1   --> A              
     e( 43 - 43) =     22.27672  eV     1   --> A              
     e( 44 - 44) =     22.43171  eV     1   --> A              
     e( 45 - 45) =     22.49957  eV     1   --> A              
     e( 46 - 46) =     22.69974  eV     1   --> A              
     e( 47 - 47) =     22.72168  eV     1   --> A              
     e( 48 - 48) =     22.80255  eV     1   --> A              
     e( 49 - 49) =     23.42480  eV     1   --> A              
     e( 50 - 50) =     24.14496  eV     1   --> A              
     e( 51 - 51) =     24.16253  eV     1   --> A              
     e( 52 - 52) =     24.56628  eV     1   --> A              
     e( 53 - 53) =     25.39241  eV     1   --> A              
     e( 54 - 54) =     25.62937  eV     1   --> A              
     e( 55 - 55) =     25.78230  eV     1   --> A              
     e( 56 - 56) =     26.60976  eV     1   --> A              
     e( 57 - 57) =     26.66161  eV     1   --> A              
     e( 58 - 58) =     26.78669  eV     1   --> A              
     e( 59 - 59) =     27.37936  eV     1   --> A              
     e( 60 - 60) =     28.60954  eV     1   --> A              
     e( 61 - 61) =     28.85694  eV     1   --> A              
     e( 62 - 62) =     30.01108  eV     1   --> A              
     e( 63 - 63) =     30.50033  eV     1   --> A              
     e( 64 - 64) =     30.68950  eV     1   --> A              
     e( 65 - 65) =     30.82733  eV     1   --> A              
     e( 66 - 66) =     31.00921  eV     1   --> A              
     e( 67 - 67) =     32.26798  eV     1   --> A              
     e( 68 - 68) =     33.40385  eV     1   --> A              
     e( 69 - 69) =     33.51112  eV     1   --> A              
     e( 70 - 70) =     33.61069  eV     1   --> A              

 **************************************************************************

 **************************************************************************

                    xk=(   0.07701,   0.04434,   0.00000  )

     Band symmetry, C_1 (1)     point group:

     e(  1 -  1) =    -13.73562  eV     1   --> A              
     e(  2 -  2) =    -13.66424  eV     1   --> A              
     e(  3 -  3) =    -12.98710  eV     1   --> A              
     e(  4 -  4) =    -12.90224  eV     1   --> A              
     e(  5 -  5) =     -0.71841  eV     1   --> A              
     e(  6 -  6) =      0.15766  eV     1   --> A              
     e(  7 -  7) =      0.79920  eV     1   --> A              
     e(  8 -  8) =      1.14814  eV     1   --> A              
     e(  9 -  9) =      1.18996  eV     1   --> A              
     e( 10 - 10) =      1.31980  eV     1   --> A              
     e( 11 - 11) =      1.36220  eV     1   --> A              
     e( 12 - 12) =      1.68911  eV     1   --> A              
     e( 13 - 13) =      1.76604  eV     1   --> A              
     e( 14 - 14) =      1.89597  eV     1   --> A              
     e( 15 - 15) =      1.94751  eV     1   --> A              
     e( 16 - 16) =      2.73443  eV     1   --> A              
     e( 17 - 17) =      3.62383  eV     1   --> A              
     e( 18 - 18) =      5.45958  eV     1   --> A              
     e( 19 - 19) =      6.73829  eV     1   --> A              
     e( 20 - 20) =      8.48531  eV     1   --> A              
     e( 21 - 21) =      9.34335  eV     1   --> A              
     e( 22 - 22) =     10.43205  eV     1   --> A              
     e( 23 - 23) =     13.34953  eV     1   --> A              
     e( 24 - 24) =     13.67907  eV     1   --> A              
     e( 25 - 25) =     13.97326  eV     1   --> A              
     e( 26 - 26) =     14.06936  eV     1   --> A              
     e( 27 - 27) =     14.65111  eV     1   --> A              
     e( 28 - 28) =     14.92754  eV     1   --> A              
     e( 29 - 29) =     15.31338  eV     1   --> A              
     e( 30 - 30) =     15.57104  eV     1   --> A              
     e( 31 - 31) =     16.07681  eV     1   --> A              
     e( 32 - 32) =     16.30711  eV     1   --> A              
     e( 33 - 33) =     16.95303  eV     1   --> A              
     e( 34 - 34) =     17.93387  eV     1   --> A              
     e( 35 - 35) =     18.04565  eV     1   --> A              
     e( 36 - 36) =     18.22495  eV     1   --> A              
     e( 37 - 37) =     18.95309  eV     1   --> A              
     e( 38 - 38) =     19.21651  eV     1   --> A              
     e( 39 - 39) =     20.49502  eV     1   --> A              
     e( 40 - 40) =     21.07451  eV     1   --> A              
     e( 41 - 41) =     21.51594  eV     1   --> A              
     e( 42 - 42) =     21.66733  eV     1   --> A              
     e( 43 - 43) =     22.21486  eV     1   --> A              
     e( 44 - 44) =     22.35942  eV     1   --> A              
     e( 45 - 45) =     22.49439  eV     1   --> A              
     e( 46 - 46) =     22.69199  eV     1   --> A              
     e( 47 - 47) =     22.77400  eV     1   --> A              
     e( 48 - 48) =     23.04528  eV     1   --> A              
     e( 49 - 49) =     23.51814  eV     1   --> A              
     e( 50 - 50) =     24.16230  eV     1   --> A              
     e( 51 - 51) =     24.19393  eV     1   --> A              
     e( 52 - 52) =     24.81421  eV     1   --> A              
     e( 53 - 53) =     25.39465  eV     1   --> A              
     e( 54 - 54) =     25.78966  eV     1   --> A              
     e( 55 - 55) =     26.03523  eV     1   --> A              
     e( 56 - 56) =     26.56276  eV     1   --> A              
     e( 57 - 57) =     26.65463  eV     1   --> A              
     e( 58 - 58) =     26.86319  eV     1   --> A              
     e( 59 - 59) =     27.44544  eV     1   --> A              
     e( 60 - 60) =     28.50915  eV     1   --> A              
     e( 61 - 61) =     28.92507  eV     1   --> A              
     e( 62 - 62) =     29.93257  eV     1   --> A              
     e( 63 - 63) =     30.52682  eV     1   --> A              
     e( 64 - 64) =     30.76921  eV     1   --> A              
     e( 65 - 65) =     30.92490  eV     1   --> A              
     e( 66 - 66) =     31.07428  eV     1   --> A              
     e( 67 - 67) =     32.41463  eV     1   --> A              
     e( 68 - 68) =     33.34418  eV     1   --> A              
     e( 69 - 69) =     33.48172  eV     1   --> A              
     e( 70 - 70) =     33.63900  eV     1   --> A              

 **************************************************************************

 **************************************************************************

                    xk=(   0.09626,   0.05542,   0.00000  )

     Band symmetry, C_1 (1)     point group:

     e(  1 -  1) =    -13.71755  eV     1   --> A              
     e(  2 -  2) =    -13.64694  eV     1   --> A              
     e(  3 -  3) =    -12.97270  eV     1   --> A              
     e(  4 -  4) =    -12.88891  eV     1   --> A              
     e(  5 -  5) =     -0.68901  eV     1   --> A              
     e(  6 -  6) =      0.12896  eV     1   --> A              
     e(  7 -  7) =      0.79814  eV     1   --> A              
     e(  8 -  8) =      1.02808  eV     1   --> A              
     e(  9 -  9) =      1.07657  eV     1   --> A              
     e( 10 - 10) =      1.29898  eV     1   --> A              
     e( 11 - 11) =      1.33683  eV     1   --> A              
     e( 12 - 12) =      1.63035  eV     1   --> A              
     e( 13 - 13) =      1.67449  eV     1   --> A              
     e( 14 - 14) =      1.87778  eV     1   --> A              
     e( 15 - 15) =      1.93028  eV     1   --> A              
     e( 16 - 16) =      2.77166  eV     1   --> A              
     e( 17 - 17) =      3.76194  eV     1   --> A              
     e( 18 - 18) =      5.46762  eV     1   --> A              
     e( 19 - 19) =      6.89473  eV     1   --> A              
     e( 20 - 20) =      8.59922  eV     1   --> A              
     e( 21 - 21) =      9.39304  eV     1   --> A              
     e( 22 - 22) =     10.52282  eV     1   --> A              
     e( 23 - 23) =     13.05892  eV     1   --> A              
     e( 24 - 24) =     13.56990  eV     1   --> A              
     e( 25 - 25) =     13.71096  eV     1   --> A              
     e( 26 - 26) =     14.05988  eV     1   --> A              
     e( 27 - 27) =     14.66184  eV     1   --> A              
     e( 28 - 28) =     14.79515  eV     1   --> A              
     e( 29 - 29) =     15.23356  eV     1   --> A              
     e( 30 - 30) =     15.65478  eV     1   --> A              
     e( 31 - 31) =     16.04462  eV     1   --> A              
     e( 32 - 32) =     16.38548  eV     1   --> A              
     e( 33 - 33) =     16.84654  eV     1   --> A              
     e( 34 - 34) =     17.74035  eV     1   --> A              
     e( 35 - 35) =     18.07417  eV     1   --> A              
     e( 36 - 36) =     18.21586  eV     1   --> A              
     e( 37 - 37) =     19.00439  eV     1   --> A              
     e( 38 - 38) =     19.15158  eV     1   --> A              
     e( 39 - 39) =     20.68843  eV     1   --> A              
     e( 40 - 40) =     21.09266  eV     1   --> A              
     e( 41 - 41) =     21.61769  eV     1   --> A              
     e( 42 - 42) =     21.77745  eV     1   --> A              
     e( 43 - 43) =     22.18637  eV     1   --> A              
     e( 44 - 44) =     22.25144  eV     1   --> A              
     e( 45 - 45) =     22.30774  eV     1   --> A              
     e( 46 - 46) =     22.82320  eV     1   --> A              
     e( 47 - 47) =     22.86964  eV     1   --> A              
     e( 48 - 48) =     23.45143  eV     1   --> A              
     e( 49 - 49) =     23.57610  eV     1   --> A              
     e( 50 - 50) =     24.16126  eV     1   --> A              
     e( 51 - 51) =     24.27672  eV     1   --> A              
     e( 52 - 52) =     25.09900  eV     1   --> A              
     e( 53 - 53) =     25.41464  eV     1   --> A              
     e( 54 - 54) =     25.97499  eV     1   --> A              
     e( 55 - 55) =     26.31004  eV     1   --> A              
     e( 56 - 56) =     26.51564  eV     1   --> A              
     e( 57 - 57) =     26.61690  eV     1   --> A              
     e( 58 - 58) =     26.95058  eV     1   --> A              
     e( 59 - 59) =     27.58939  eV     1   --> A              
     e( 60 - 60) =     28.39066  eV     1   --> A              
     e( 61 - 61) =     29.01028  eV     1   --> A              
     e( 62 - 62) =     29.82517  eV     1   --> A              
     e( 63 - 63) =     30.56022  eV     1   --> A              
     e( 64 - 64) =     30.70222  eV     1   --> A              
     e( 65 - 65) =     31.14109  eV     1   --> A              
     e( 66 - 66) =     31.22543  eV     1   --> A              
     e( 67 - 67) =     32.54200  eV     1   --> A              
     e( 68 - 68) =     33.27122  eV     1   --> A              
     e( 69 - 69) =     33.47912  eV     1   --> A              
     e( 70 - 70) =     33.69832  eV     1   --> A              

 **************************************************************************

 **************************************************************************

                    xk=(   0.11551,   0.06651,   0.00000  )

     Band symmetry, C_1 (1)     point group:

     e(  1 -  1) =    -13.69585  eV     1   --> A              
     e(  2 -  2) =    -13.62618  eV     1   --> A              
     e(  3 -  3) =    -12.95547  eV     1   --> A              
     e(  4 -  4) =    -12.87295  eV     1   --> A              
     e(  5 -  5) =     -0.65705  eV     1   --> A              
     e(  6 -  6) =      0.09473  eV     1   --> A              
     e(  7 -  7) =      0.77917  eV     1   --> A              
     e(  8 -  8) =      0.90361  eV     1   --> A              
     e(  9 -  9) =      0.93813  eV     1   --> A              
     e( 10 - 10) =      1.27416  eV     1   --> A              
     e( 11 - 11) =      1.30375  eV     1   --> A              
     e( 12 - 12) =      1.58192  eV     1   --> A              
     e( 13 - 13) =      1.59777  eV     1   --> A              
     e( 14 - 14) =      1.85483  eV     1   --> A              
     e( 15 - 15) =      1.90867  eV     1   --> A              
     e( 16 - 16) =      2.80860  eV     1   --> A              
     e( 17 - 17) =      3.90388  eV     1   --> A              
     e( 18 - 18) =      5.47654  eV     1   --> A              
     e( 19 - 19) =      7.07396  eV     1   --> A              
     e( 20 - 20) =      8.73234  eV     1   --> A              
     e( 21 - 21) =      9.44966  eV     1   --> A              
     e( 22 - 22) =     10.62875  eV     1   --> A              
     e( 23 - 23) =     12.75537  eV     1   --> A              
     e( 24 - 24) =     13.42105  eV     1   --> A              
     e( 25 - 25) =     13.44026  eV     1   --> A              
     e( 26 - 26) =     14.05332  eV     1   --> A              
     e( 27 - 27) =     14.65235  eV     1   --> A              
     e( 28 - 28) =     14.66662  eV     1   --> A              
     e( 29 - 29) =     15.13905  eV     1   --> A              
     e( 30 - 30) =     15.75339  eV     1   --> A              
     e( 31 - 31) =     16.01791  eV     1   --> A              
     e( 32 - 32) =     16.47911  eV     1   --> A              
     e( 33 - 33) =     16.67270  eV     1   --> A              
     e( 34 - 34) =     17.53179  eV     1   --> A              
     e( 35 - 35) =     17.98713  eV     1   --> A              
     e( 36 - 36) =     18.30009  eV     1   --> A              
     e( 37 - 37) =     19.01769  eV     1   --> A              
     e( 38 - 38) =     19.19425  eV     1   --> A              
     e( 39 - 39) =     20.85866  eV     1   --> A              
     e( 40 - 40) =     21.18014  eV     1   --> A              
     e( 41 - 41) =     21.54584  eV     1   --> A              
     e( 42 - 42) =     21.88927  eV     1   --> A              
     e( 43 - 43) =     22.05563  eV     1   --> A              
     e( 44 - 44) =     22.20056  eV     1   --> A              
     e( 45 - 45) =     22.33701  eV     1   --> A              
     e( 46 - 46) =     22.91423  eV     1   --> A              
     e( 47 - 47) =     23.05811  eV     1   --> A              
     e( 48 - 48) =     23.55229  eV     1   --> A              
     e( 49 - 49) =     23.89792  eV     1   --> A              
     e( 50 - 50) =     24.15745  eV     1   --> A              
     e( 51 - 51) =     24.46316  eV     1   --> A              
     e( 52 - 52) =     25.41291  eV     1   --> A              
     e( 53 - 53) =     25.44933  eV     1   --> A              
     e( 54 - 54) =     26.15646  eV     1   --> A              
     e( 55 - 55) =     26.41522  eV     1   --> A              
     e( 56 - 56) =     26.48679  eV     1   --> A              
     e( 57 - 57) =     26.75100  eV     1   --> A              
     e( 58 - 58) =     27.04350  eV     1   --> A              
     e( 59 - 59) =     27.77611  eV     1   --> A              
     e( 60 - 60) =     28.27010  eV     1   --> A              
     e( 61 - 61) =     29.11294  eV     1   --> A              
     e( 62 - 62) =     29.70502  eV     1   --> A              
     e( 63 - 63) =     30.59916  eV     1   --> A              
     e( 64 - 64) =     30.63096  eV     1   --> A              
     e( 65 - 65) =     31.20649  eV     1   --> A              
     e( 66 - 66) =     31.56277  eV     1   --> A              
     e( 67 - 67) =     32.62450  eV     1   --> A              
     e( 68 - 68) =     33.18271  eV     1   --> A              
     e( 69 - 69) =     33.49914  eV     1   --> A              
     e( 70 - 70) =     33.73636  eV     1   --> A              

 **************************************************************************

 **************************************************************************

                    xk=(   0.13476,   0.07759,   0.00000  )

     Band symmetry, C_1 (1)     point group:

     e(  1 -  1) =    -13.67077  eV     1   --> A              
     e(  2 -  2) =    -13.60218  eV     1   --> A              
     e(  3 -  3) =    -12.93563  eV     1   --> A              
     e(  4 -  4) =    -12.85459  eV     1   --> A              
     e(  5 -  5) =     -0.62632  eV     1   --> A              
     e(  6 -  6) =      0.05830  eV     1   --> A              
     e(  7 -  7) =      0.70072  eV     1   --> A              
     e(  8 -  8) =      0.78384  eV     1   --> A              
     e(  9 -  9) =      0.81243  eV     1   --> A              
     e( 10 - 10) =      1.24472  eV     1   --> A              
     e( 11 - 11) =      1.26439  eV     1   --> A              
     e( 12 - 12) =      1.50985  eV     1   --> A              
     e( 13 - 13) =      1.57901  eV     1   --> A              
     e( 14 - 14) =      1.82691  eV     1   --> A              
     e( 15 - 15) =      1.88254  eV     1   --> A              
     e( 16 - 16) =      2.84388  eV     1   --> A              
     e( 17 - 17) =      4.04530  eV     1   --> A              
     e( 18 - 18) =      5.48624  eV     1   --> A              
     e( 19 - 19) =      7.27155  eV     1   --> A              
     e( 20 - 20) =      8.88183  eV     1   --> A              
     e( 21 - 21) =      9.51111  eV     1   --> A              
     e( 22 - 22) =     10.74600  eV     1   --> A              
     e( 23 - 23) =     12.44910  eV     1   --> A              
     e( 24 - 24) =     13.12366  eV     1   --> A              
     e( 25 - 25) =     13.29421  eV     1   --> A              
     e( 26 - 26) =     14.03310  eV     1   --> A              
     e( 27 - 27) =     14.50172  eV     1   --> A              
     e( 28 - 28) =     14.66047  eV     1   --> A              
     e( 29 - 29) =     15.03662  eV     1   --> A              
     e( 30 - 30) =     15.85929  eV     1   --> A              
     e( 31 - 31) =     16.00279  eV     1   --> A              
     e( 32 - 32) =     16.46690  eV     1   --> A              
     e( 33 - 33) =     16.58652  eV     1   --> A              
     e( 34 - 34) =     17.32475  eV     1   --> A              
     e( 35 - 35) =     17.86764  eV     1   --> A              
     e( 36 - 36) =     18.38258  eV     1   --> A              
     e( 37 - 37) =     18.94525  eV     1   --> A              
     e( 38 - 38) =     19.37058  eV     1   --> A              
     e( 39 - 39) =     21.01142  eV     1   --> A              
     e( 40 - 40) =     21.31596  eV     1   --> A              
     e( 41 - 41) =     21.33613  eV     1   --> A              
     e( 42 - 42) =     21.85043  eV     1   --> A              
     e( 43 - 43) =     22.00849  eV     1   --> A              
     e( 44 - 44) =     22.25745  eV     1   --> A              
     e( 45 - 45) =     22.45040  eV     1   --> A              
     e( 46 - 46) =     23.04347  eV     1   --> A              
     e( 47 - 47) =     23.26334  eV     1   --> A              
     e( 48 - 48) =     23.47478  eV     1   --> A              
     e( 49 - 49) =     24.17123  eV     1   --> A              
     e( 50 - 50) =     24.36771  eV     1   --> A              
     e( 51 - 51) =     24.74375  eV     1   --> A              
     e( 52 - 52) =     25.49318  eV     1   --> A              
     e( 53 - 53) =     25.74004  eV     1   --> A              
     e( 54 - 54) =     26.26011  eV     1   --> A              
     e( 55 - 55) =     26.35569  eV     1   --> A              
     e( 56 - 56) =     26.53827  eV     1   --> A              
     e( 57 - 57) =     27.07580  eV     1   --> A              
     e( 58 - 58) =     27.13725  eV     1   --> A              
     e( 59 - 59) =     27.91119  eV     1   --> A              
     e( 60 - 60) =     28.21828  eV     1   --> A              
     e( 61 - 61) =     29.23293  eV     1   --> A              
     e( 62 - 62) =     29.58387  eV     1   --> A              
     e( 63 - 63) =     30.55600  eV     1   --> A              
     e( 64 - 64) =     30.64671  eV     1   --> A              
     e( 65 - 65) =     31.27205  eV     1   --> A              
     e( 66 - 66) =     31.89464  eV     1   --> A              
     e( 67 - 67) =     32.68758  eV     1   --> A              
     e( 68 - 68) =     33.07947  eV     1   --> A              
     e( 69 - 69) =     33.51923  eV     1   --> A              
     e( 70 - 70) =     33.71972  eV     1   --> A              

 **************************************************************************

 **************************************************************************

                    xk=(   0.15401,   0.08868,   0.00000  )

     Band symmetry, C_1 (1)     point group:

     e(  1 -  1) =    -13.64259  eV     1   --> A              
     e(  2 -  2) =    -13.57522  eV     1   --> A              
     e(  3 -  3) =    -12.91343  eV     1   --> A              
     e(  4 -  4) =    -12.83405  eV     1   --> A              
     e(  5 -  5) =     -0.60290  eV     1   --> A              
     e(  6 -  6) =      0.02582  eV     1   --> A              
     e(  7 -  7) =      0.56334  eV     1   --> A              
     e(  8 -  8) =      0.62212  eV     1   --> A              
     e(  9 -  9) =      0.74841  eV     1   --> A              
     e( 10 - 10) =      1.20998  eV     1   --> A              
     e( 11 - 11) =      1.22445  eV     1   --> A              
     e( 12 - 12) =      1.45679  eV     1   --> A              
     e( 13 - 13) =      1.57969  eV     1   --> A              
     e( 14 - 14) =      1.79399  eV     1   --> A              
     e( 15 - 15) =      1.85184  eV     1   --> A              
     e( 16 - 16) =      2.87672  eV     1   --> A              
     e( 17 - 17) =      4.18316  eV     1   --> A              
     e( 18 - 18) =      5.49683  eV     1   --> A              
     e( 19 - 19) =      7.48361  eV     1   --> A              
     e( 20 - 20) =      9.04491  eV     1   --> A              
     e( 21 - 21) =      9.57516  eV     1   --> A              
     e( 22 - 22) =     10.86810  eV     1   --> A              
     e( 23 - 23) =     12.14968  eV     1   --> A              
     e( 24 - 24) =     12.82637  eV     1   --> A              
     e( 25 - 25) =     13.13673  eV     1   --> A              
     e( 26 - 26) =     13.99310  eV     1   --> A              
     e( 27 - 27) =     14.34530  eV     1   --> A              
     e( 28 - 28) =     14.63808  eV     1   --> A              
     e( 29 - 29) =     14.93184  eV     1   --> A              
     e( 30 - 30) =     15.92687  eV     1   --> A              
     e( 31 - 31) =     16.04203  eV     1   --> A              
     e( 32 - 32) =     16.25053  eV     1   --> A              
     e( 33 - 33) =     16.70554  eV     1   --> A              
     e( 34 - 34) =     17.13346  eV     1   --> A              
     e( 35 - 35) =     17.75054  eV     1   --> A              
     e( 36 - 36) =     18.40245  eV     1   --> A              
     e( 37 - 37) =     18.92282  eV     1   --> A              
     e( 38 - 38) =     19.56144  eV     1   --> A              
     e( 39 - 39) =     21.06909  eV     1   --> A              
     e( 40 - 40) =     21.16586  eV     1   --> A              
     e( 41 - 41) =     21.46330  eV     1   --> A              
     e( 42 - 42) =     21.65428  eV     1   --> A              
     e( 43 - 43) =     22.14291  eV     1   --> A              
     e( 44 - 44) =     22.34984  eV     1   --> A              
     e( 45 - 45) =     22.52537  eV     1   --> A              
     e( 46 - 46) =     23.11804  eV     1   --> A              
     e( 47 - 47) =     23.47822  eV     1   --> A              
     e( 48 - 48) =     23.49213  eV     1   --> A              
     e( 49 - 49) =     24.22462  eV     1   --> A              
     e( 50 - 50) =     24.84835  eV     1   --> A              
     e( 51 - 51) =     25.08291  eV     1   --> A              
     e( 52 - 52) =     25.54319  eV     1   --> A              
     e( 53 - 53) =     26.00135  eV     1   --> A              
     e( 54 - 54) =     26.25390  eV     1   --> A              
     e( 55 - 55) =     26.37727  eV     1   --> A              
     e( 56 - 56) =     26.69476  eV     1   --> A              
     e( 57 - 57) =     27.22800  eV     1   --> A              
     e( 58 - 58) =     27.42035  eV     1   --> A              
     e( 59 - 59) =     27.85621  eV     1   --> A              
     e( 60 - 60) =     28.35759  eV     1   --> A              
     e( 61 - 61) =     29.36699  eV     1   --> A              
     e( 62 - 62) =     29.47145  eV     1   --> A              
     e( 63 - 63) =     30.48994  eV     1   --> A              
     e( 64 - 64) =     30.69609  eV     1   --> A              
     e( 65 - 65) =     31.34585  eV     1   --> A              
     e( 66 - 66) =     32.12995  eV     1   --> A              
     e( 67 - 67) =     32.83013  eV     1   --> A              
     e( 68 - 68) =     32.96743  eV     1   --> A              
     e( 69 - 69) =     33.53472  eV     1   --> A              
     e( 70 - 70) =     33.71526  eV     1   --> A              

 **************************************************************************

 **************************************************************************

                    xk=(   0.17326,   0.09976,   0.00000  )

     Band symmetry, C_1 (1)     point group:

     e(  1 -  1) =    -13.61162  eV     1   --> A              
     e(  2 -  2) =    -13.54560  eV     1   --> A              
     e(  3 -  3) =    -12.88915  eV     1   --> A              
     e(  4 -  4) =    -12.81160  eV     1   --> A              
     e(  5 -  5) =     -0.59503  eV     1   --> A              
     e(  6 -  6) =      0.00582  eV     1   --> A              
     e(  7 -  7) =      0.41172  eV     1   --> A              
     e(  8 -  8) =      0.45976  eV     1   --> A              
     e(  9 -  9) =      0.66610  eV     1   --> A              
     e( 10 - 10) =      1.17172  eV     1   --> A              
     e( 11 - 11) =      1.18683  eV     1   --> A              
     e( 12 - 12) =      1.42599  eV     1   --> A              
     e( 13 - 13) =      1.59499  eV     1   --> A              
     e( 14 - 14) =      1.75661  eV     1   --> A              
     e( 15 - 15) =      1.81659  eV     1   --> A              
     e( 16 - 16) =      2.90674  eV     1   --> A              
     e( 17 - 17) =      4.31522  eV     1   --> A              
     e( 18 - 18) =      5.50878  eV     1   --> A              
     e( 19 - 19) =      7.70682  eV     1   --> A              
     e( 20 - 20) =      9.21899  eV     1   --> A              
     e( 21 - 21) =      9.63950  eV     1   --> A              
     e( 22 - 22) =     10.98093  eV     1   --> A              
     e( 23 - 23) =     11.87175  eV     1   --> A              
     e( 24 - 24) =     12.53504  eV     1   --> A              
     e( 25 - 25) =     12.97309  eV     1   --> A              
     e( 26 - 26) =     13.92949  eV     1   --> A              
     e( 27 - 27) =     14.18545  eV     1   --> A              
     e( 28 - 28) =     14.59468  eV     1   --> A              
     e( 29 - 29) =     14.82816  eV     1   --> A              
     e( 30 - 30) =     15.92583  eV     1   --> A              
     e( 31 - 31) =     16.03259  eV     1   --> A              
     e( 32 - 32) =     16.16234  eV     1   --> A              
     e( 33 - 33) =     16.83368  eV     1   --> A              
     e( 34 - 34) =     16.96627  eV     1   --> A              
     e( 35 - 35) =     17.65402  eV     1   --> A              
     e( 36 - 36) =     18.34292  eV     1   --> A              
     e( 37 - 37) =     18.98165  eV     1   --> A              
     e( 38 - 38) =     19.74546  eV     1   --> A              
     e( 39 - 39) =     20.78311  eV     1   --> A              
     e( 40 - 40) =     21.32529  eV     1   --> A              
     e( 41 - 41) =     21.46894  eV     1   --> A              
     e( 42 - 42) =     21.59150  eV     1   --> A              
     e( 43 - 43) =     22.29887  eV     1   --> A              
     e( 44 - 44) =     22.46548  eV     1   --> A              
     e( 45 - 45) =     22.54668  eV     1   --> A              
     e( 46 - 46) =     23.01161  eV     1   --> A              
     e( 47 - 47) =     23.67174  eV     1   --> A              
     e( 48 - 48) =     23.75049  eV     1   --> A              
     e( 49 - 49) =     24.34424  eV     1   --> A              
     e( 50 - 50) =     25.32577  eV     1   --> A              
     e( 51 - 51) =     25.42980  eV     1   --> A              
     e( 52 - 52) =     25.61720  eV     1   --> A              
     e( 53 - 53) =     26.05201  eV     1   --> A              
     e( 54 - 54) =     26.22250  eV     1   --> A              
     e( 55 - 55) =     26.64925  eV     1   --> A              
     e( 56 - 56) =     26.87072  eV     1   --> A              
     e( 57 - 57) =     27.31315  eV     1   --> A              
     e( 58 - 58) =     27.71332  eV     1   --> A              
     e( 59 - 59) =     27.76989  eV     1   --> A              
     e( 60 - 60) =     28.55664  eV     1   --> A              
     e( 61 - 61) =     29.37640  eV     1   --> A              
     e( 62 - 62) =     29.50556  eV     1   --> A              
     e( 63 - 63) =     30.44314  eV     1   --> A              
     e( 64 - 64) =     30.74780  eV     1   --> A              
     e( 65 - 65) =     31.44126  eV     1   --> A              
     e( 66 - 66) =     32.20326  eV     1   --> A              
     e( 67 - 67) =     32.85741  eV     1   --> A              
     e( 68 - 68) =     33.10197  eV     1   --> A              
     e( 69 - 69) =     33.57484  eV     1   --> A              
     e( 70 - 70) =     33.72926  eV     1   --> A              

 **************************************************************************

 **************************************************************************

                    xk=(   0.19251,   0.11085,   0.00000  )

     Band symmetry, C_1 (1)     point group:

     e(  1 -  1) =    -13.57821  eV     1   --> A              
     e(  2 -  2) =    -13.51366  eV     1   --> A              
     e(  3 -  3) =    -12.86312  eV     1   --> A              
     e(  4 -  4) =    -12.78752  eV     1   --> A              
     e(  5 -  5) =     -0.61038  eV     1   --> A              
     e(  6 -  6) =      0.00433  eV     1   --> A              
     e(  7 -  7) =      0.25751  eV     1   --> A              
     e(  8 -  8) =      0.30413  eV     1   --> A              
     e(  9 -  9) =      0.56178  eV     1   --> A              
     e( 10 - 10) =      1.12839  eV     1   --> A              
     e( 11 - 11) =      1.15018  eV     1   --> A              
     e( 12 - 12) =      1.41670  eV     1   --> A              
     e( 13 - 13) =      1.61918  eV     1   --> A              
     e( 14 - 14) =      1.71834  eV     1   --> A              
     e( 15 - 15) =      1.77705  eV     1   --> A              
     e( 16 - 16) =      2.93377  eV     1   --> A              
     e( 17 - 17) =      4.43966  eV     1   --> A              
     e( 18 - 18) =      5.52282  eV     1   --> A              
     e( 19 - 19) =      7.93845  eV     1   --> A              
     e( 20 - 20) =      9.40169  eV     1   --> A              
     e( 21 - 21) =      9.70175  eV     1   --> A              
     e( 22 - 22) =     11.04370  eV     1   --> A              
     e( 23 - 23) =     11.65328  eV     1   --> A              
     e( 24 - 24) =     12.25638  eV     1   --> A              
     e( 25 - 25) =     12.80829  eV     1   --> A              
     e( 26 - 26) =     13.84153  eV     1   --> A              
     e( 27 - 27) =     14.02490  eV     1   --> A              
     e( 28 - 28) =     14.52718  eV     1   --> A              
     e( 29 - 29) =     14.72717  eV     1   --> A              
     e( 30 - 30) =     15.81642  eV     1   --> A              
     e( 31 - 31) =     15.91183  eV     1   --> A              
     e( 32 - 32) =     16.30381  eV     1   --> A              
     e( 33 - 33) =     16.82388  eV     1   --> A              
     e( 34 - 34) =     16.96800  eV     1   --> A              
     e( 35 - 35) =     17.58939  eV     1   --> A              
     e( 36 - 36) =     18.25085  eV     1   --> A              
     e( 37 - 37) =     19.08921  eV     1   --> A              
     e( 38 - 38) =     19.91846  eV     1   --> A              
     e( 39 - 39) =     20.49031  eV     1   --> A              
     e( 40 - 40) =     21.29550  eV     1   --> A              
     e( 41 - 41) =     21.47654  eV     1   --> A              
     e( 42 - 42) =     21.69778  eV     1   --> A              
     e( 43 - 43) =     22.46219  eV     1   --> A              
     e( 44 - 44) =     22.53105  eV     1   --> A              
     e( 45 - 45) =     22.60632  eV     1   --> A              
     e( 46 - 46) =     22.84667  eV     1   --> A              
     e( 47 - 47) =     23.89039  eV     1   --> A              
     e( 48 - 48) =     24.04119  eV     1   --> A              
     e( 49 - 49) =     24.55517  eV     1   --> A              
     e( 50 - 50) =     25.58757  eV     1   --> A              
     e( 51 - 51) =     25.77815  eV     1   --> A              
     e( 52 - 52) =     25.84986  eV     1   --> A              
     e( 53 - 53) =     26.04436  eV     1   --> A              
     e( 54 - 54) =     26.24332  eV     1   --> A              
     e( 55 - 55) =     27.02622  eV     1   --> A              
     e( 56 - 56) =     27.03044  eV     1   --> A              
     e( 57 - 57) =     27.39131  eV     1   --> A              
     e( 58 - 58) =     27.61912  eV     1   --> A              
     e( 59 - 59) =     28.04278  eV     1   --> A              
     e( 60 - 60) =     28.73955  eV     1   --> A              
     e( 61 - 61) =     29.30671  eV     1   --> A              
     e( 62 - 62) =     29.63235  eV     1   --> A              
     e( 63 - 63) =     30.43632  eV     1   --> A              
     e( 64 - 64) =     30.79941  eV     1   --> A              
     e( 65 - 65) =     31.57357  eV     1   --> A              
     e( 66 - 66) =     32.19080  eV     1   --> A              
     e( 67 - 67) =     32.76425  eV     1   --> A              
     e( 68 - 68) =     33.29005  eV     1   --> A              
     e( 69 - 69) =     33.76801  eV     1   --> A              
     e( 70 - 70) =     33.78145  eV     1   --> A              

 **************************************************************************

 **************************************************************************

                    xk=(   0.21177,   0.12193,   0.00000  )

     Band symmetry, C_1 (1)     point group:

     e(  1 -  1) =    -13.54277  eV     1   --> A              
     e(  2 -  2) =    -13.47978  eV     1   --> A              
     e(  3 -  3) =    -12.83567  eV     1   --> A              
     e(  4 -  4) =    -12.76214  eV     1   --> A              
     e(  5 -  5) =     -0.65093  eV     1   --> A              
     e(  6 -  6) =      0.00596  eV     1   --> A              
     e(  7 -  7) =      0.10497  eV     1   --> A              
     e(  8 -  8) =      0.17740  eV     1   --> A              
     e(  9 -  9) =      0.44351  eV     1   --> A              
     e( 10 - 10) =      1.07798  eV     1   --> A              
     e( 11 - 11) =      1.11004  eV     1   --> A              
     e( 12 - 12) =      1.42648  eV     1   --> A              
     e( 13 - 13) =      1.62487  eV     1   --> A              
     e( 14 - 14) =      1.70422  eV     1   --> A              
     e( 15 - 15) =      1.73417  eV     1   --> A              
     e( 16 - 16) =      2.95769  eV     1   --> A              
     e( 17 - 17) =      4.55494  eV     1   --> A              
     e( 18 - 18) =      5.54009  eV     1   --> A              
     e( 19 - 19) =      8.17622  eV     1   --> A              
     e( 20 - 20) =      9.59087  eV     1   --> A              
     e( 21 - 21) =      9.75943  eV     1   --> A              
     e( 22 - 22) =     10.97053  eV     1   --> A              
     e( 23 - 23) =     11.56655  eV     1   --> A              
     e( 24 - 24) =     12.00635  eV     1   --> A              
     e( 25 - 25) =     12.64680  eV     1   --> A              
     e( 26 - 26) =     13.73169  eV     1   --> A              
     e( 27 - 27) =     13.86660  eV     1   --> A              
     e( 28 - 28) =     14.43517  eV     1   --> A              
     e( 29 - 29) =     14.62925  eV     1   --> A              
     e( 30 - 30) =     15.60398  eV     1   --> A              
     e( 31 - 31) =     15.89637  eV     1   --> A              
     e( 32 - 32) =     16.45016  eV     1   --> A              
     e( 33 - 33) =     16.70060  eV     1   --> A              
     e( 34 - 34) =     17.10388  eV     1   --> A              
     e( 35 - 35) =     17.56198  eV     1   --> A              
     e( 36 - 36) =     18.17014  eV     1   --> A              
     e( 37 - 37) =     19.21668  eV     1   --> A              
     e( 38 - 38) =     20.08215  eV     1   --> A              
     e( 39 - 39) =     20.19843  eV     1   --> A              
     e( 40 - 40) =     21.13372  eV     1   --> A              
     e( 41 - 41) =     21.59549  eV     1   --> A              
     e( 42 - 42) =     21.79923  eV     1   --> A              
     e( 43 - 43) =     22.48599  eV     1   --> A              
     e( 44 - 44) =     22.58807  eV     1   --> A              
     e( 45 - 45) =     22.68395  eV     1   --> A              
     e( 46 - 46) =     22.80228  eV     1   --> A              
     e( 47 - 47) =     24.07343  eV     1   --> A              
     e( 48 - 48) =     24.35665  eV     1   --> A              
     e( 49 - 49) =     24.84042  eV     1   --> A              
     e( 50 - 50) =     25.64683  eV     1   --> A              
     e( 51 - 51) =     25.97084  eV     1   --> A              
     e( 52 - 52) =     26.05354  eV     1   --> A              
     e( 53 - 53) =     26.18504  eV     1   --> A              
     e( 54 - 54) =     26.50395  eV     1   --> A              
     e( 55 - 55) =     27.16181  eV     1   --> A              
     e( 56 - 56) =     27.41665  eV     1   --> A              
     e( 57 - 57) =     27.46252  eV     1   --> A              
     e( 58 - 58) =     27.56132  eV     1   --> A              
     e( 59 - 59) =     28.26964  eV     1   --> A              
     e( 60 - 60) =     28.88662  eV     1   --> A              
     e( 61 - 61) =     29.26831  eV     1   --> A              
     e( 62 - 62) =     29.73593  eV     1   --> A              
     e( 63 - 63) =     30.49388  eV     1   --> A              
     e( 64 - 64) =     30.84840  eV     1   --> A              
     e( 65 - 65) =     31.75177  eV     1   --> A              
     e( 66 - 66) =     32.15788  eV     1   --> A              
     e( 67 - 67) =     32.70590  eV     1   --> A              
     e( 68 - 68) =     33.28909  eV     1   --> A              
     e( 69 - 69) =     33.83814  eV     1   --> A              
     e( 70 - 70) =     34.19030  eV     1   --> A              

 **************************************************************************

 **************************************************************************

                    xk=(   0.23102,   0.13302,   0.00000  )

     Band symmetry, C_1 (1)     point group:

     e(  1 -  1) =    -13.50570  eV     1   --> A              
     e(  2 -  2) =    -13.44436  eV     1   --> A              
     e(  3 -  3) =    -12.80714  eV     1   --> A              
     e(  4 -  4) =    -12.73579  eV     1   --> A              
     e(  5 -  5) =     -0.71185  eV     1   --> A              
     e(  6 -  6) =     -0.06685  eV     1   --> A              
     e(  7 -  7) =     -0.04317  eV     1   --> A              
     e(  8 -  8) =      0.15637  eV     1   --> A              
     e(  9 -  9) =      0.31943  eV     1   --> A              
     e( 10 - 10) =      1.02088  eV     1   --> A              
     e( 11 - 11) =      1.06265  eV     1   --> A              
     e( 12 - 12) =      1.44943  eV     1   --> A              
     e( 13 - 13) =      1.58255  eV     1   --> A              
     e( 14 - 14) =      1.68914  eV     1   --> A              
     e( 15 - 15) =      1.74273  eV     1   --> A              
     e( 16 - 16) =      2.97856  eV     1   --> A              
     e( 17 - 17) =      4.65973  eV     1   --> A              
     e( 18 - 18) =      5.56187  eV     1   --> A              
     e( 19 - 19) =      8.41822  eV     1   --> A              
     e( 20 - 20) =      9.78463  eV     1   --> A              
     e( 21 - 21) =      9.80972  eV     1   --> A              
     e( 22 - 22) =     10.76991  eV     1   --> A              
     e( 23 - 23) =     11.53027  eV     1   --> A              
     e( 24 - 24) =     11.85947  eV     1   --> A              
     e( 25 - 25) =     12.49243  eV     1   --> A              
     e( 26 - 26) =     13.60464  eV     1   --> A              
     e( 27 - 27) =     13.71335  eV     1   --> A              
     e( 28 - 28) =     14.32119  eV     1   --> A              
     e( 29 - 29) =     14.53433  eV     1   --> A              
     e( 30 - 30) =     15.39823  eV     1   --> A              
     e( 31 - 31) =     15.88108  eV     1   --> A              
     e( 32 - 32) =     16.58523  eV     1   --> A              
     e( 33 - 33) =     16.59469  eV     1   --> A              
     e( 34 - 34) =     17.23649  eV     1   --> A              
     e( 35 - 35) =     17.57190  eV     1   --> A              
     e( 36 - 36) =     18.12485  eV     1   --> A              
     e( 37 - 37) =     19.35253  eV     1   --> A              
     e( 38 - 38) =     19.91341  eV     1   --> A              
     e( 39 - 39) =     20.23979  eV     1   --> A              
     e( 40 - 40) =     20.98306  eV     1   --> A              
     e( 41 - 41) =     21.66024  eV     1   --> A              
     e( 42 - 42) =     21.91902  eV     1   --> A              
     e( 43 - 43) =     22.39860  eV     1   --> A              
     e( 44 - 44) =     22.56623  eV     1   --> A              
     e( 45 - 45) =     22.66921  eV     1   --> A              
     e( 46 - 46) =     23.04263  eV     1   --> A              
     e( 47 - 47) =     24.23387  eV     1   --> A              
     e( 48 - 48) =     24.68094  eV     1   --> A              
     e( 49 - 49) =     25.11789  eV     1   --> A              
     e( 50 - 50) =     25.73781  eV     1   --> A              
     e( 51 - 51) =     25.96392  eV     1   --> A              
     e( 52 - 52) =     26.12801  eV     1   --> A              
     e( 53 - 53) =     26.46312  eV     1   --> A              
     e( 54 - 54) =     26.92523  eV     1   --> A              
     e( 55 - 55) =     27.26223  eV     1   --> A              
     e( 56 - 56) =     27.53016  eV     1   --> A              
     e( 57 - 57) =     27.59775  eV     1   --> A              
     e( 58 - 58) =     27.79212  eV     1   --> A              
     e( 59 - 59) =     28.42800  eV     1   --> A              
     e( 60 - 60) =     28.98983  eV     1   --> A              
     e( 61 - 61) =     29.26447  eV     1   --> A              
     e( 62 - 62) =     29.82464  eV     1   --> A              
     e( 63 - 63) =     30.63064  eV     1   --> A              
     e( 64 - 64) =     30.89203  eV     1   --> A              
     e( 65 - 65) =     31.96784  eV     1   --> A              
     e( 66 - 66) =     32.13027  eV     1   --> A              
     e( 67 - 67) =     32.70550  eV     1   --> A              
     e( 68 - 68) =     33.21402  eV     1   --> A              
     e( 69 - 69) =     33.94383  eV     1   --> A              
     e( 70 - 70) =     34.63994  eV     1   --> A              

 **************************************************************************

 **************************************************************************

                    xk=(   0.25027,   0.14410,   0.00000  )

     Band symmetry, C_1 (1)     point group:

     e(  1 -  1) =    -13.46747  eV     1   --> A              
     e(  2 -  2) =    -13.40783  eV     1   --> A              
     e(  3 -  3) =    -12.77792  eV     1   --> A              
     e(  4 -  4) =    -12.70880  eV     1   --> A              
     e(  5 -  5) =     -0.78574  eV     1   --> A              
     e(  6 -  6) =     -0.19375  eV     1   --> A              
     e(  7 -  7) =     -0.18475  eV     1   --> A              
     e(  8 -  8) =      0.19532  eV     1   --> A              
     e(  9 -  9) =      0.21649  eV     1   --> A              
     e( 10 - 10) =      0.95765  eV     1   --> A              
     e( 11 - 11) =      1.00735  eV     1   --> A              
     e( 12 - 12) =      1.47336  eV     1   --> A              
     e( 13 - 13) =      1.52237  eV     1   --> A              
     e( 14 - 14) =      1.65080  eV     1   --> A              
     e( 15 - 15) =      1.80020  eV     1   --> A              
     e( 16 - 16) =      2.99629  eV     1   --> A              
     e( 17 - 17) =      4.75300  eV     1   --> A              
     e( 18 - 18) =      5.58951  eV     1   --> A              
     e( 19 - 19) =      8.66292  eV     1   --> A              
     e( 20 - 20) =      9.84850  eV     1   --> A              
     e( 21 - 21) =      9.98152  eV     1   --> A              
     e( 22 - 22) =     10.52964  eV     1   --> A              
     e( 23 - 23) =     11.36385  eV     1   --> A              
     e( 24 - 24) =     11.91052  eV     1   --> A              
     e( 25 - 25) =     12.34838  eV     1   --> A              
     e( 26 - 26) =     13.46568  eV     1   --> A              
     e( 27 - 27) =     13.56756  eV     1   --> A              
     e( 28 - 28) =     14.19014  eV     1   --> A              
     e( 29 - 29) =     14.44220  eV     1   --> A              
     e( 30 - 30) =     15.20345  eV     1   --> A              
     e( 31 - 31) =     15.86626  eV     1   --> A              
     e( 32 - 32) =     16.47008  eV     1   --> A              
     e( 33 - 33) =     16.72920  eV     1   --> A              
     e( 34 - 34) =     17.35933  eV     1   --> A              
     e( 35 - 35) =     17.61575  eV     1   --> A              
     e( 36 - 36) =     18.12532  eV     1   --> A              
     e( 37 - 37) =     19.49209  eV     1   --> A              
     e( 38 - 38) =     19.64113  eV     1   --> A              
     e( 39 - 39) =     20.39398  eV     1   --> A              
     e( 40 - 40) =     20.84261  eV     1   --> A              
     e( 41 - 41) =     21.67897  eV     1   --> A              
     e( 42 - 42) =     22.05463  eV     1   --> A              
     e( 43 - 43) =     22.26942  eV     1   --> A              
     e( 44 - 44) =     22.51011  eV     1   --> A              
     e( 45 - 45) =     22.72386  eV     1   --> A              
     e( 46 - 46) =     23.29609  eV     1   --> A              
     e( 47 - 47) =     24.38691  eV     1   --> A              
     e( 48 - 48) =     24.99383  eV     1   --> A              
     e( 49 - 49) =     25.27109  eV     1   --> A              
     e( 50 - 50) =     25.88761  eV     1   --> A              
     e( 51 - 51) =     26.00760  eV     1   --> A              
     e( 52 - 52) =     26.24546  eV     1   --> A              
     e( 53 - 53) =     26.61326  eV     1   --> A              
     e( 54 - 54) =     27.30936  eV     1   --> A              
     e( 55 - 55) =     27.38146  eV     1   --> A              
     e( 56 - 56) =     27.61743  eV     1   --> A              
     e( 57 - 57) =     27.73082  eV     1   --> A              
     e( 58 - 58) =     28.11304  eV     1   --> A              
     e( 59 - 59) =     28.55677  eV     1   --> A              
     e( 60 - 60) =     29.05474  eV     1   --> A              
     e( 61 - 61) =     29.29521  eV     1   --> A              
     e( 62 - 62) =     29.91896  eV     1   --> A              
     e( 63 - 63) =     30.84441  eV     1   --> A              
     e( 64 - 64) =     30.92729  eV     1   --> A              
     e( 65 - 65) =     32.11977  eV     1   --> A              
     e( 66 - 66) =     32.19232  eV     1   --> A              
     e( 67 - 67) =     32.79423  eV     1   --> A              
     e( 68 - 68) =     33.09665  eV     1   --> A              
     e( 69 - 69) =     34.08198  eV     1   --> A              
     e( 70 - 70) =     34.95916  eV     1   --> A              

 **************************************************************************

 **************************************************************************

                    xk=(   0.26952,   0.15519,   0.00000  )

     Band symmetry, C_1 (1)     point group:

     e(  1 -  1) =    -13.42853  eV     1   --> A              
     e(  2 -  2) =    -13.37066  eV     1   --> A              
     e(  3 -  3) =    -12.74839  eV     1   --> A              
     e(  4 -  4) =    -12.68154  eV     1   --> A              
     e(  5 -  5) =     -0.86594  eV     1   --> A              
     e(  6 -  6) =     -0.32368  eV     1   --> A              
     e(  7 -  7) =     -0.31700  eV     1   --> A              
     e(  8 -  8) =      0.07574  eV     1   --> A              
     e(  9 -  9) =      0.30106  eV     1   --> A              
     e( 10 - 10) =      0.88928  eV     1   --> A              
     e( 11 - 11) =      0.94465  eV     1   --> A              
     e( 12 - 12) =      1.45106  eV     1   --> A              
     e( 13 - 13) =      1.47669  eV     1   --> A              
     e( 14 - 14) =      1.63911  eV     1   --> A              
     e( 15 - 15) =      1.86583  eV     1   --> A              
     e( 16 - 16) =      3.01096  eV     1   --> A              
     e( 17 - 17) =      4.83440  eV     1   --> A              
     e( 18 - 18) =      5.62399  eV     1   --> A              
     e( 19 - 19) =      8.90899  eV     1   --> A              
     e( 20 - 20) =      9.86813  eV     1   --> A              
     e( 21 - 21) =     10.17978  eV     1   --> A              
     e( 22 - 22) =     10.29048  eV     1   --> A              
     e( 23 - 23) =     11.15204  eV     1   --> A              
     e( 24 - 24) =     12.03919  eV     1   --> A              
     e( 25 - 25) =     12.21739  eV     1   --> A              
     e( 26 - 26) =     13.31948  eV     1   --> A              
     e( 27 - 27) =     13.43120  eV     1   --> A              
     e( 28 - 28) =     14.04843  eV     1   --> A              
     e( 29 - 29) =     14.35287  eV     1   --> A              
     e( 30 - 30) =     15.02467  eV     1   --> A              
     e( 31 - 31) =     15.85181  eV     1   --> A              
     e( 32 - 32) =     16.35019  eV     1   --> A              
     e( 33 - 33) =     16.84762  eV     1   --> A              
     e( 34 - 34) =     17.46443  eV     1   --> A              
     e( 35 - 35) =     17.68866  eV     1   --> A              
     e( 36 - 36) =     18.17055  eV     1   --> A              
     e( 37 - 37) =     19.38807  eV     1   --> A              
     e( 38 - 38) =     19.63293  eV     1   --> A              
     e( 39 - 39) =     20.54601  eV     1   --> A              
     e( 40 - 40) =     20.71146  eV     1   --> A              
     e( 41 - 41) =     21.67014  eV     1   --> A              
     e( 42 - 42) =     22.14112  eV     1   --> A              
     e( 43 - 43) =     22.19481  eV     1   --> A              
     e( 44 - 44) =     22.48592  eV     1   --> A              
     e( 45 - 45) =     22.76005  eV     1   --> A              
     e( 46 - 46) =     23.54509  eV     1   --> A              
     e( 47 - 47) =     24.53455  eV     1   --> A              
     e( 48 - 48) =     25.27619  eV     1   --> A              
     e( 49 - 49) =     25.29645  eV     1   --> A              
     e( 50 - 50) =     25.89855  eV     1   --> A              
     e( 51 - 51) =     26.30719  eV     1   --> A              
     e( 52 - 52) =     26.36535  eV     1   --> A              
     e( 53 - 53) =     26.72676  eV     1   --> A              
     e( 54 - 54) =     27.37078  eV     1   --> A              
     e( 55 - 55) =     27.59016  eV     1   --> A              
     e( 56 - 56) =     27.83668  eV     1   --> A              
     e( 57 - 57) =     27.92073  eV     1   --> A              
     e( 58 - 58) =     28.34390  eV     1   --> A              
     e( 59 - 59) =     28.73923  eV     1   --> A              
     e( 60 - 60) =     29.11990  eV     1   --> A              
     e( 61 - 61) =     29.35924  eV     1   --> A              
     e( 62 - 62) =     30.02822  eV     1   --> A              
     e( 63 - 63) =     30.95002  eV     1   --> A              
     e( 64 - 64) =     31.12331  eV     1   --> A              
     e( 65 - 65) =     32.13313  eV     1   --> A              
     e( 66 - 66) =     32.39660  eV     1   --> A              
     e( 67 - 67) =     32.94425  eV     1   --> A              
     e( 68 - 68) =     32.99555  eV     1   --> A              
     e( 69 - 69) =     34.23229  eV     1   --> A              
     e( 70 - 70) =     34.98946  eV     1   --> A              

 **************************************************************************

 **************************************************************************

                    xk=(   0.28877,   0.16627,   0.00000  )

     Band symmetry, C_1 (1)     point group:

     e(  1 -  1) =    -13.38940  eV     1   --> A              
     e(  2 -  2) =    -13.33329  eV     1   --> A              
     e(  3 -  3) =    -12.71893  eV     1   --> A              
     e(  4 -  4) =    -12.65435  eV     1   --> A              
     e(  5 -  5) =     -0.94741  eV     1   --> A              
     e(  6 -  6) =     -0.44787  eV     1   --> A              
     e(  7 -  7) =     -0.43706  eV     1   --> A              
     e(  8 -  8) =     -0.03674  eV     1   --> A              
     e(  9 -  9) =      0.39531  eV     1   --> A              
     e( 10 - 10) =      0.81829  eV     1   --> A              
     e( 11 - 11) =      0.87523  eV     1   --> A              
     e( 12 - 12) =      1.37583  eV     1   --> A              
     e( 13 - 13) =      1.43753  eV     1   --> A              
     e( 14 - 14) =      1.66806  eV     1   --> A              
     e( 15 - 15) =      1.93574  eV     1   --> A              
     e( 16 - 16) =      3.02250  eV     1   --> A              
     e( 17 - 17) =      4.90448  eV     1   --> A              
     e( 18 - 18) =      5.66560  eV     1   --> A              
     e( 19 - 19) =      9.15528  eV     1   --> A              
     e( 20 - 20) =      9.84212  eV     1   --> A              
     e( 21 - 21) =     10.08534  eV     1   --> A              
     e( 22 - 22) =     10.37805  eV     1   --> A              
     e( 23 - 23) =     10.94931  eV     1   --> A              
     e( 24 - 24) =     12.10178  eV     1   --> A              
     e( 25 - 25) =     12.18064  eV     1   --> A              
     e( 26 - 26) =     13.16945  eV     1   --> A              
     e( 27 - 27) =     13.30575  eV     1   --> A              
     e( 28 - 28) =     13.90351  eV     1   --> A              
     e( 29 - 29) =     14.26651  eV     1   --> A              
     e( 30 - 30) =     14.86711  eV     1   --> A              
     e( 31 - 31) =     15.83726  eV     1   --> A              
     e( 32 - 32) =     16.22790  eV     1   --> A              
     e( 33 - 33) =     16.94165  eV     1   --> A              
     e( 34 - 34) =     17.54226  eV     1   --> A              
     e( 35 - 35) =     17.78539  eV     1   --> A              
     e( 36 - 36) =     18.25137  eV     1   --> A              
     e( 37 - 37) =     19.16233  eV     1   --> A              
     e( 38 - 38) =     19.77257  eV     1   --> A              
     e( 39 - 39) =     20.58902  eV     1   --> A              
     e( 40 - 40) =     20.69540  eV     1   --> A              
     e( 41 - 41) =     21.64740  eV     1   --> A              
     e( 42 - 42) =     22.03416  eV     1   --> A              
     e( 43 - 43) =     22.33301  eV     1   --> A              
     e( 44 - 44) =     22.48310  eV     1   --> A              
     e( 45 - 45) =     22.78289  eV     1   --> A              
     e( 46 - 46) =     23.78027  eV     1   --> A              
     e( 47 - 47) =     24.66692  eV     1   --> A              
     e( 48 - 48) =     25.27166  eV     1   --> A              
     e( 49 - 49) =     25.51722  eV     1   --> A              
     e( 50 - 50) =     25.89722  eV     1   --> A              
     e( 51 - 51) =     26.42488  eV     1   --> A              
     e( 52 - 52) =     26.64825  eV     1   --> A              
     e( 53 - 53) =     26.91597  eV     1   --> A              
     e( 54 - 54) =     27.41072  eV     1   --> A              
     e( 55 - 55) =     27.66970  eV     1   --> A              
     e( 56 - 56) =     27.81948  eV     1   --> A              
[...]
     e( 61 - 61) =     28.87833  eV     1   --> A'             
     e( 62 - 62) =     29.97639  eV     1   --> A'             
     e( 63 - 63) =     30.51878  eV     1   --> A''            
     e( 64 - 64) =     30.78490  eV     1   --> A'             
     e( 65 - 65) =     30.80758  eV     1   --> A'             
     e( 66 - 66) =     31.03488  eV     1   --> A''            
     e( 67 - 67) =     32.33543  eV     1   --> A'             
     e( 68 - 68) =     33.38049  eV     1   --> A'             
     e( 69 - 69) =     33.51207  eV     1   --> A'             
     e( 70 - 70) =     33.60578  eV     1   --> A''            

 **************************************************************************

 **************************************************************************

                    xk=(   0.05775,   0.00000,   0.00000  )

     Band symmetry, C_s (m)     point group:

     e(  1 -  1) =    -13.75447  eV     1   --> A'             
     e(  2 -  2) =    -13.68229  eV     1   --> A'             
     e(  3 -  3) =    -13.00216  eV     1   --> A'             
     e(  4 -  4) =    -12.91619  eV     1   --> A'             
     e(  5 -  5) =     -0.75108  eV     1   --> A'             
     e(  6 -  6) =      0.18653  eV     1   --> A'             
     e(  7 -  7) =      0.79278  eV     1   --> A'             
     e(  8 -  8) =      1.28472  eV     1   --> A'             
     e(  9 -  9) =      1.30092  eV     1   --> A'             
     e( 10 - 10) =      1.34087  eV     1   --> A''            
     e( 11 - 11) =      1.38601  eV     1   --> A''            
     e( 12 - 12) =      1.79851  eV     1   --> A'             
     e( 13 - 13) =      1.88021  eV     1   --> A'             
     e( 14 - 14) =      1.91328  eV     1   --> A''            
     e( 15 - 15) =      1.96419  eV     1   --> A''            
     e( 16 - 16) =      2.68626  eV     1   --> A'             
     e( 17 - 17) =      3.44990  eV     1   --> A'             
     e( 18 - 18) =      5.45043  eV     1   --> A'             
     e( 19 - 19) =      6.56662  eV     1   --> A'             
     e( 20 - 20) =      8.36308  eV     1   --> A'             
     e( 21 - 21) =      9.28889  eV     1   --> A'             
     e( 22 - 22) =     10.33511  eV     1   --> A'             
     e( 23 - 23) =     13.71195  eV     1   --> A'             
     e( 24 - 24) =     13.79293  eV     1   --> A'             
     e( 25 - 25) =     14.03074  eV     1   --> A''            
     e( 26 - 26) =     14.33406  eV     1   --> A'             
     e( 27 - 27) =     14.62985  eV     1   --> A''            
     e( 28 - 28) =     15.08827  eV     1   --> A'             
     e( 29 - 29) =     15.39554  eV     1   --> A'             
     e( 30 - 30) =     15.47635  eV     1   --> A''            
     e( 31 - 31) =     16.12960  eV     1   --> A'             
     e( 32 - 32) =     16.21938  eV     1   --> A''            
     e( 33 - 33) =     16.94810  eV     1   --> A'             
     e( 34 - 34) =     17.89448  eV     1   --> A'             
     e( 35 - 35) =     18.17909  eV     1   --> A'             
     e( 36 - 36) =     18.32511  eV     1   --> A''            
     e( 37 - 37) =     19.03591  eV     1   --> A'             
     e( 38 - 38) =     19.29016  eV     1   --> A''            
     e( 39 - 39) =     20.20431  eV     1   --> A'             
     e( 40 - 40) =     21.12749  eV     1   --> A'             
     e( 41 - 41) =     21.29451  eV     1   --> A'             
     e( 42 - 42) =     21.54223  eV     1   --> A''            
     e( 43 - 43) =     22.26386  eV     1   --> A'             
     e( 44 - 44) =     22.43645  eV     1   --> A'             
     e( 45 - 45) =     22.48090  eV     1   --> A'             
     e( 46 - 46) =     22.59407  eV     1   --> A''            
     e( 47 - 47) =     22.78068  eV     1   --> A''            
     e( 48 - 48) =     22.83684  eV     1   --> A'             
     e( 49 - 49) =     23.38976  eV     1   --> A'             
     e( 50 - 50) =     24.13143  eV     1   --> A''            
     e( 51 - 51) =     24.15163  eV     1   --> A'             
     e( 52 - 52) =     24.47942  eV     1   --> A'             
     e( 53 - 53) =     25.40006  eV     1   --> A'             
     e( 54 - 54) =     25.57165  eV     1   --> A''            
     e( 55 - 55) =     25.69691  eV     1   --> A'             
     e( 56 - 56) =     26.63295  eV     1   --> A'             
     e( 57 - 57) =     26.65220  eV     1   --> A'             
     e( 58 - 58) =     26.75373  eV     1   --> A''            
     e( 59 - 59) =     27.37503  eV     1   --> A'             
     e( 60 - 60) =     28.64074  eV     1   --> A''            
     e( 61 - 61) =     28.83544  eV     1   --> A'             
     e( 62 - 62) =     30.03013  eV     1   --> A'             
     e( 63 - 63) =     30.49231  eV     1   --> A''            
     e( 64 - 64) =     30.61910  eV     1   --> A'             
     e( 65 - 65) =     30.85410  eV     1   --> A'             
     e( 66 - 66) =     30.97844  eV     1   --> A''            
     e( 67 - 67) =     32.21187  eV     1   --> A'             
     e( 68 - 68) =     33.42718  eV     1   --> A'             
     e( 69 - 69) =     33.53739  eV     1   --> A'             
     e( 70 - 70) =     33.59338  eV     1   --> A''            

 **************************************************************************

 **************************************************************************

                    xk=(   0.03850,   0.00000,   0.00000  )

     Band symmetry, C_s (m)     point group:

     e(  1 -  1) =    -13.76222  eV     1   --> A'             
     e(  2 -  2) =    -13.68971  eV     1   --> A'             
     e(  3 -  3) =    -13.00837  eV     1   --> A'             
     e(  4 -  4) =    -12.92195  eV     1   --> A'             
     e(  5 -  5) =     -0.76498  eV     1   --> A'             
     e(  6 -  6) =      0.19771  eV     1   --> A'             
     e(  7 -  7) =      0.78856  eV     1   --> A'             
     e(  8 -  8) =      1.33168  eV     1   --> A'             
     e(  9 -  9) =      1.35023  eV     1   --> A''            
     e( 10 - 10) =      1.35453  eV     1   --> A'             
     e( 11 - 11) =      1.39493  eV     1   --> A''            
     e( 12 - 12) =      1.86445  eV     1   --> A'             
     e( 13 - 13) =      1.92008  eV     1   --> A''            
     e( 14 - 14) =      1.93336  eV     1   --> A'             
     e( 15 - 15) =      1.97049  eV     1   --> A''            
     e( 16 - 16) =      2.66249  eV     1   --> A'             
     e( 17 - 17) =      3.36489  eV     1   --> A'             
     e( 18 - 18) =      5.44639  eV     1   --> A'             
     e( 19 - 19) =      6.49329  eV     1   --> A'             
     e( 20 - 20) =      8.31190  eV     1   --> A'             
     e( 21 - 21) =      9.26579  eV     1   --> A'             
     e( 22 - 22) =     10.29484  eV     1   --> A'             
     e( 23 - 23) =     13.83900  eV     1   --> A'             
     e( 24 - 24) =     13.88426  eV     1   --> A'             
     e( 25 - 25) =     14.02364  eV     1   --> A''            
     e( 26 - 26) =     14.49232  eV     1   --> A'             
     e( 27 - 27) =     14.61957  eV     1   --> A''            
     e( 28 - 28) =     15.16484  eV     1   --> A'             
     e( 29 - 29) =     15.42005  eV     1   --> A'             
     e( 30 - 30) =     15.44058  eV     1   --> A''            
     e( 31 - 31) =     16.15543  eV     1   --> A'             
     e( 32 - 32) =     16.18557  eV     1   --> A''            
     e( 33 - 33) =     16.89029  eV     1   --> A'             
     e( 34 - 34) =     17.79668  eV     1   --> A'             
     e( 35 - 35) =     18.31545  eV     1   --> A'             
     e( 36 - 36) =     18.38390  eV     1   --> A''            
     e( 37 - 37) =     19.15562  eV     1   --> A'             
     e( 38 - 38) =     19.29363  eV     1   --> A''            
     e( 39 - 39) =     20.04279  eV     1   --> A'             
     e( 40 - 40) =     21.18283  eV     1   --> A'             
     e( 41 - 41) =     21.23166  eV     1   --> A'             
     e( 42 - 42) =     21.43618  eV     1   --> A''            
     e( 43 - 43) =     22.17836  eV     1   --> A'             
     e( 44 - 44) =     22.38959  eV     1   --> A'             
     e( 45 - 45) =     22.41858  eV     1   --> A'             
     e( 46 - 46) =     22.50378  eV     1   --> A''            
     e( 47 - 47) =     22.91948  eV     1   --> A''            
     e( 48 - 48) =     22.94740  eV     1   --> A'             
     e( 49 - 49) =     23.32824  eV     1   --> A'             
     e( 50 - 50) =     24.10066  eV     1   --> A''            
     e( 51 - 51) =     24.11681  eV     1   --> A'             
     e( 52 - 52) =     24.32263  eV     1   --> A'             
     e( 53 - 53) =     25.41509  eV     1   --> A'             
     e( 54 - 54) =     25.47921  eV     1   --> A''            
     e( 55 - 55) =     25.54534  eV     1   --> A'             
     e( 56 - 56) =     26.61645  eV     1   --> A'             
     e( 57 - 57) =     26.66591  eV     1   --> A'             
     e( 58 - 58) =     26.70545  eV     1   --> A''            
     e( 59 - 59) =     27.38671  eV     1   --> A'             
     e( 60 - 60) =     28.69492  eV     1   --> A''            
     e( 61 - 61) =     28.80060  eV     1   --> A'             
     e( 62 - 62) =     30.04169  eV     1   --> A'             
     e( 63 - 63) =     30.47360  eV     1   --> A''            
     e( 64 - 64) =     30.52527  eV     1   --> A'             
     e( 65 - 65) =     30.88967  eV     1   --> A'             
     e( 66 - 66) =     30.93339  eV     1   --> A''            
     e( 67 - 67) =     32.10835  eV     1   --> A'             
     e( 68 - 68) =     33.46450  eV     1   --> A'             
     e( 69 - 69) =     33.56915  eV     1   --> A'             
     e( 70 - 70) =     33.58444  eV     1   --> A''            

 **************************************************************************

 **************************************************************************

                    xk=(   0.01925,   0.00000,   0.00000  )

     Band symmetry, C_s (m)     point group:

     e(  1 -  1) =    -13.76691  eV     1   --> A'             
     e(  2 -  2) =    -13.69419  eV     1   --> A'             
     e(  3 -  3) =    -13.01212  eV     1   --> A'             
     e(  4 -  4) =    -12.92543  eV     1   --> A'             
     e(  5 -  5) =     -0.77348  eV     1   --> A'             
     e(  6 -  6) =      0.20421  eV     1   --> A'             
     e(  7 -  7) =      0.78563  eV     1   --> A'             
     e(  8 -  8) =      1.35423  eV     1   --> A'             
     e(  9 -  9) =      1.35589  eV     1   --> A''            
     e( 10 - 10) =      1.39240  eV     1   --> A'             
     e( 11 - 11) =      1.40033  eV     1   --> A''            
     e( 12 - 12) =      1.91181  eV     1   --> A'             
     e( 13 - 13) =      1.92419  eV     1   --> A''            
     e( 14 - 14) =      1.96723  eV     1   --> A'             
     e( 15 - 15) =      1.97429  eV     1   --> A''            
     e( 16 - 16) =      2.64661  eV     1   --> A'             
     e( 17 - 17) =      3.30796  eV     1   --> A'             
     e( 18 - 18) =      5.44384  eV     1   --> A'             
     e( 19 - 19) =      6.44815  eV     1   --> A'             
     e( 20 - 20) =      8.28071  eV     1   --> A'             
     e( 21 - 21) =      9.25162  eV     1   --> A'             
     e( 22 - 22) =     10.27039  eV     1   --> A'             
     e( 23 - 23) =     13.86660  eV     1   --> A'             
     e( 24 - 24) =     13.99788  eV     1   --> A'             
     e( 25 - 25) =     14.01907  eV     1   --> A''            
     e( 26 - 26) =     14.59525  eV     1   --> A'             
     e( 27 - 27) =     14.61313  eV     1   --> A''            
     e( 28 - 28) =     15.21642  eV     1   --> A'             
     e( 29 - 29) =     15.41901  eV     1   --> A''            
     e( 30 - 30) =     15.43065  eV     1   --> A'             
     e( 31 - 31) =     16.16517  eV     1   --> A''            
     e( 32 - 32) =     16.17310  eV     1   --> A'             
     e( 33 - 33) =     16.83527  eV     1   --> A'             
     e( 34 - 34) =     17.72488  eV     1   --> A'             
     e( 35 - 35) =     18.41850  eV     1   --> A'             
     e( 36 - 36) =     18.42343  eV     1   --> A''            
     e( 37 - 37) =     19.26632  eV     1   --> A'             
     e( 38 - 38) =     19.29512  eV     1   --> A''            
     e( 39 - 39) =     19.90740  eV     1   --> A'             
     e( 40 - 40) =     21.11142  eV     1   --> A'             
     e( 41 - 41) =     21.32778  eV     1   --> A'             
     e( 42 - 42) =     21.37073  eV     1   --> A''            
     e( 43 - 43) =     22.00151  eV     1   --> A'             
     e( 44 - 44) =     22.39473  eV     1   --> A'             
     e( 45 - 45) =     22.43358  eV     1   --> A'             
     e( 46 - 46) =     22.44795  eV     1   --> A''            
     e( 47 - 47) =     23.01767  eV     1   --> A''            
     e( 48 - 48) =     23.03787  eV     1   --> A'             
     e( 49 - 49) =     23.29116  eV     1   --> A'             
     e( 50 - 50) =     24.06696  eV     1   --> A''            
     e( 51 - 51) =     24.08498  eV     1   --> A'             
     e( 52 - 52) =     24.21844  eV     1   --> A'             
     e( 53 - 53) =     25.42506  eV     1   --> A''            
     e( 54 - 54) =     25.42838  eV     1   --> A'             
     e( 55 - 55) =     25.45065  eV     1   --> A'             
     e( 56 - 56) =     26.58496  eV     1   --> A'             
     e( 57 - 57) =     26.67532  eV     1   --> A''            
     e( 58 - 58) =     26.68642  eV     1   --> A'             
     e( 59 - 59) =     27.40673  eV     1   --> A'             
     e( 60 - 60) =     28.72950  eV     1   --> A''            
     e( 61 - 61) =     28.77747  eV     1   --> A'             
     e( 62 - 62) =     30.02630  eV     1   --> A'             
     e( 63 - 63) =     30.46246  eV     1   --> A''            
     e( 64 - 64) =     30.49085  eV     1   --> A'             
     e( 65 - 65) =     30.90416  eV     1   --> A''            
     e( 66 - 66) =     30.91173  eV     1   --> A'             
     e( 67 - 67) =     32.04005  eV     1   --> A'             
     e( 68 - 68) =     33.49044  eV     1   --> A'             
     e( 69 - 69) =     33.57903  eV     1   --> A''            
     e( 70 - 70) =     33.59362  eV     1   --> A'             

 **************************************************************************

 **************************************************************************

                    xk=(   0.00000,   0.00000,   0.00000  )

     Band symmetry, C_s (m)     point group:

     e(  1 -  1) =    -13.76847  eV     1   --> A'             
     e(  2 -  2) =    -13.69569  eV     1   --> A'             
     e(  3 -  3) =    -13.01337  eV     1   --> A'             
     e(  4 -  4) =    -12.92659  eV     1   --> A'             
     e(  5 -  5) =     -0.77634  eV     1   --> A'             
     e(  6 -  6) =      0.20635  eV     1   --> A'             
     e(  7 -  7) =      0.78460  eV     1   --> A'             
     e(  8 -  8) =      1.35782  eV     1   --> A''            
     e(  9 -  9) =      1.36135  eV     1   --> A'             
     e( 10 - 10) =      1.40216  eV     1   --> A''            
     e( 11 - 11) =      1.40554  eV     1   --> A'             
     e( 12 - 12) =      1.92559  eV     1   --> A''            
     e( 13 - 13) =      1.92911  eV     1   --> A'             
     e( 14 - 14) =      1.97558  eV     1   --> A''            
     e( 15 - 15) =      1.97895  eV     1   --> A'             
     e( 16 - 16) =      2.64098  eV     1   --> A'             
     e( 17 - 17) =      3.28775  eV     1   --> A'             
     e( 18 - 18) =      5.44297  eV     1   --> A'             
     e( 19 - 19) =      6.43290  eV     1   --> A'             
     e( 20 - 20) =      8.27023  eV     1   --> A'             
     e( 21 - 21) =      9.24685  eV     1   --> A'             
     e( 22 - 22) =     10.26219  eV     1   --> A'             
     e( 23 - 23) =     13.87577  eV     1   --> A'             
     e( 24 - 24) =     14.01750  eV     1   --> A''            
     e( 25 - 25) =     14.03784  eV     1   --> A'             
     e( 26 - 26) =     14.61094  eV     1   --> A''            
     e( 27 - 27) =     14.63112  eV     1   --> A'             
     e( 28 - 28) =     15.23504  eV     1   --> A'             
     e( 29 - 29) =     15.41180  eV     1   --> A''            
     e( 30 - 30) =     15.43302  eV     1   --> A'             
     e( 31 - 31) =     16.15835  eV     1   --> A''            
     e( 32 - 32) =     16.17939  eV     1   --> A'             
     e( 33 - 33) =     16.81327  eV     1   --> A'             
     e( 34 - 34) =     17.69863  eV     1   --> A'             
     e( 35 - 35) =     18.43743  eV     1   --> A''            
     e( 36 - 36) =     18.45735  eV     1   --> A'             
     e( 37 - 37) =     19.29545  eV     1   --> A''            
     e( 38 - 38) =     19.31599  eV     1   --> A'             
     e( 39 - 39) =     19.84877  eV     1   --> A'             
     e( 40 - 40) =     21.08687  eV     1   --> A'             
     e( 41 - 41) =     21.34860  eV     1   --> A''            
     e( 42 - 42) =     21.37359  eV     1   --> A'             
     e( 43 - 43) =     21.92494  eV     1   --> A'             
     e( 44 - 44) =     22.38508  eV     1   --> A'             
     e( 45 - 45) =     22.42904  eV     1   --> A''            
     e( 46 - 46) =     22.45344  eV     1   --> A'             
     e( 47 - 47) =     23.05398  eV     1   --> A''            
     e( 48 - 48) =     23.07229  eV     1   --> A'             
     e( 49 - 49) =     23.27903  eV     1   --> A'             
     e( 50 - 50) =     24.05191  eV     1   --> A''            
     e( 51 - 51) =     24.07146  eV     1   --> A'             
     e( 52 - 52) =     24.18151  eV     1   --> A'             
     e( 53 - 53) =     25.40743  eV     1   --> A''            
     e( 54 - 54) =     25.41843  eV     1   --> A'             
     e( 55 - 55) =     25.43364  eV     1   --> A'             
     e( 56 - 56) =     26.57288  eV     1   --> A'             
     e( 57 - 57) =     26.66505  eV     1   --> A''            
     e( 58 - 58) =     26.69346  eV     1   --> A'             
     e( 59 - 59) =     27.41551  eV     1   --> A'             
     e( 60 - 60) =     28.74141  eV     1   --> A''            
     e( 61 - 61) =     28.76932  eV     1   --> A'             
     e( 62 - 62) =     30.01630  eV     1   --> A'             
     e( 63 - 63) =     30.45877  eV     1   --> A''            
     e( 64 - 64) =     30.48423  eV     1   --> A'             
     e( 65 - 65) =     30.89402  eV     1   --> A''            
     e( 66 - 66) =     30.91920  eV     1   --> A'             
     e( 67 - 67) =     32.01622  eV     1   --> A'             
     e( 68 - 68) =     33.50012  eV     1   --> A'             
     e( 69 - 69) =     33.57723  eV     1   --> A''            
     e( 70 - 70) =     33.60270  eV     1   --> A'             

 **************************************************************************
 
     BANDS        :      9.70s CPU     13.59s WALL

 
   This run was terminated on:  14:14:43  18Jun2023            

=------------------------------------------------------------------------------=
   JOB DONE.
=------------------------------------------------------------------------------=
