
     Program PWSCF v.7.1 starts on 18Jun2023 at 14:11: 9 

     This program is part of the open-source Quantum ESPRESSO suite
     for quantum simulation of materials; please cite
         "P. Giannozzi et al., J. Phys.:Condens. Matter 21 395502 (2009);
         "P. Giannozzi et al., J. Phys.:Condens. Matter 29 465901 (2017);
         "P. Giannozzi et al., J. Chem. Phys. 152 154105 (2020);
          URL http://www.quantum-espresso.org", 
     in publications or presentations arising from this work. More details at
     http://www.quantum-espresso.org/quote

     Parallel version (MPI), running on    16 processors

     MPI processes distributed on     1 nodes
     50178 MiB available memory on the printing compute node when the environment starts
 
     Waiting for input...
     Reading input from standard input

     Current dimensions of program PWSCF are:
     Max number of different atomic species (ntypx) = 10
     Max number of k-points (npk) =  40000
     Max angular momentum in pseudopotentials (lmaxx) =  4
     Message from routine volume:
     axis vectors are left-handed

     Atomic positions and unit cell read from directory:
     ./work/Al2O2.save/
     Atomic positions from file used, from input discarded
 
     Message from routine volume:
     axis vectors are left-handed
     file Al.pbe-n-kjpaw_psl.1.0.0.UPF: wavefunction(s)  3S 3P renormalized
     file O.pbe-n-kjpaw_psl.1.0.0.UPF: wavefunction(s)  2S 2P renormalized

     IMPORTANT: XC functional enforced from input :
     Exchange-correlation= VDW-DF2-B86R
                           (   1   4  26   0   2   0   0)
     Any further DFT definition will be discarded
     Please, verify this is what you really want

     Message from routine setup:
     using ibrav=0 with symmetry is DISCOURAGED, use correct ibrav instead
 
     R & G space division:  proc/nbgrp/npool/nimage =      16
     Subspace diagonalization in iterative solution of the eigenvalue problem:
     a serial algorithm will be used

 
     Parallelization info
     --------------------
     sticks:   dense  smooth     PW     G-vecs:    dense   smooth      PW
     Min          39      39     11                 2861     2861     453
     Max          40      40     12                 2867     2867     464
     Sum         625     625    187                45819    45819    7367
 
     Using Slab Decomposition
 


     bravais-lattice index     =            0
     lattice parameter (alat)  =       6.1344  a.u.
     unit-cell volume          =     729.9027 (a.u.)^3
     number of atoms/cell      =            8
     number of atomic types    =            2
     number of electrons       =        36.00
     number of Kohn-Sham states=           70
     kinetic-energy cutoff     =      60.0000  Ry
     charge density cutoff     =     240.0000  Ry
     Exchange-correlation= VDW-DF2-B86R
                           (   1   4  26   0   2   0   0)

     celldm(1)=   6.134387  celldm(2)=   0.000000  celldm(3)=   0.000000
     celldm(4)=   0.000000  celldm(5)=   0.000000  celldm(6)=   0.000000

     crystal axes: (cart. coord. in units of alat)
               a(1) = (   0.865734   0.500504   0.000000 )  
               a(2) = (   0.865734  -0.500504   0.000000 )  
               a(3) = (   0.000000   0.000000   3.648627 )  

     reciprocal axes: (cart. coord. in units 2 pi/alat)
               b(1) = (  0.577544  0.998993  0.000000 )  
               b(2) = (  0.577544 -0.998993  0.000000 )  
               b(3) = (  0.000000  0.000000  0.274076 )  


     PseudoPot. # 1 for Al read from file:
     /home/mainadmin/research/danu/pseudo/Al.pbe-n-kjpaw_psl.1.0.0.UPF
     MD5 check sum: 502b6b27b9c6270cab5dd1084b96fa6d
     Pseudo is Projector augmented-wave + core cor, Zval =  3.0
     Generated using &quot;atomic&quot; code by A. Dal Corso  v.6.3
     Shape of augmentation charge: PSQ
     Using radial grid of 1135 points,  6 beta functions with: 
                l(1) =   0
                l(2) =   0
                l(3) =   1
                l(4) =   1
                l(5) =   2
                l(6) =   2
     Q(r) pseudized with 0 coefficients 


     PseudoPot. # 2 for O  read from file:
     /home/mainadmin/research/danu/pseudo/O.pbe-n-kjpaw_psl.1.0.0.UPF
     MD5 check sum: e99d9cef9b487d1ca56f5b95ecd0fd7a
     Pseudo is Projector augmented-wave + core cor, Zval =  6.0
     Generated using &quot;atomic&quot; code by A. Dal Corso  v.6.3
     Shape of augmentation charge: PSQ
     Using radial grid of 1095 points,  4 beta functions with: 
                l(1) =   0
                l(2) =   0
                l(3) =   1
                l(4) =   1
     Q(r) pseudized with 0 coefficients 


     atomic species   valence    mass     pseudopotential
        Al             3.00    26.98100     Al( 1.00)
        O              6.00    15.99900     O ( 1.00)

      2 Sym. Ops. (no inversion) found



   Cartesian axes

     site n.     atom                  positions (alat units)
         1           O   tau(   1) = (   0.5771561   0.0000000   0.0000000  )
         2           Al  tau(   2) = (   0.0000000   0.0000000   0.1680310  )
         3           Al  tau(   3) = (   0.0000000   0.0000000   0.9717503  )
         4           O   tau(   4) = (   0.5771561   0.0000000   1.1392179  )
         5           O   tau(   5) = (   1.1543123   0.0000000   1.8342314  )
         6           Al  tau(   6) = (   0.5771561   0.0000000   1.9928095  )
         7           Al  tau(   7) = (   0.5771561   0.0000000   2.7951295  )
         8           O   tau(   8) = (   1.1543123   0.0000000   2.9547128  )

     number of k points=    91
                       cart. coord. in units 2pi/alat
        k(    1) = (   0.0000000   0.0000000   0.0000000), wk =   0.0219780
        k(    2) = (   0.0192515   0.0110848   0.0000000), wk =   0.0219780
        k(    3) = (   0.0385030   0.0221697   0.0000000), wk =   0.0219780
        k(    4) = (   0.0577544   0.0332545   0.0000000), wk =   0.0219780
        k(    5) = (   0.0770059   0.0443393   0.0000000), wk =   0.0219780
        k(    6) = (   0.0962574   0.0554241   0.0000000), wk =   0.0219780
        k(    7) = (   0.1155089   0.0665090   0.0000000), wk =   0.0219780
        k(    8) = (   0.1347604   0.0775938   0.0000000), wk =   0.0219780
        k(    9) = (   0.1540119   0.0886786   0.0000000), wk =   0.0219780
        k(   10) = (   0.1732633   0.0997634   0.0000000), wk =   0.0219780
        k(   11) = (   0.1925148   0.1108483   0.0000000), wk =   0.0219780
        k(   12) = (   0.2117663   0.1219331   0.0000000), wk =   0.0219780
        k(   13) = (   0.2310178   0.1330179   0.0000000), wk =   0.0219780
        k(   14) = (   0.2502693   0.1441027   0.0000000), wk =   0.0219780
        k(   15) = (   0.2695208   0.1551876   0.0000000), wk =   0.0219780
        k(   16) = (   0.2887722   0.1662724   0.0000000), wk =   0.0219780
        k(   17) = (   0.3080237   0.1773572   0.0000000), wk =   0.0219780
        k(   18) = (   0.3272752   0.1884420   0.0000000), wk =   0.0219780
        k(   19) = (   0.3465267   0.1995269   0.0000000), wk =   0.0219780
        k(   20) = (   0.3657782   0.2106117   0.0000000), wk =   0.0219780
        k(   21) = (   0.3850296   0.2216965   0.0000000), wk =   0.0219780
        k(   22) = (   0.4042811   0.2327813   0.0000000), wk =   0.0219780
        k(   23) = (   0.4235326   0.2438662   0.0000000), wk =   0.0219780
        k(   24) = (   0.4427841   0.2549510   0.0000000), wk =   0.0219780
        k(   25) = (   0.4620356   0.2660358   0.0000000), wk =   0.0219780
        k(   26) = (   0.4812871   0.2771206   0.0000000), wk =   0.0219780
        k(   27) = (   0.5005385   0.2882055   0.0000000), wk =   0.0219780
        k(   28) = (   0.5197900   0.2992903   0.0000000), wk =   0.0219780
        k(   29) = (   0.5390415   0.3103751   0.0000000), wk =   0.0219780
        k(   30) = (   0.5582930   0.3214599   0.0000000), wk =   0.0219780
        k(   31) = (   0.5775445   0.3325448   0.0000000), wk =   0.0219780
        k(   32) = (   0.5775445   0.3214599   0.0000000), wk =   0.0219780
        k(   33) = (   0.5775445   0.3103751   0.0000000), wk =   0.0219780
        k(   34) = (   0.5775445   0.2992903   0.0000000), wk =   0.0219780
        k(   35) = (   0.5775445   0.2882055   0.0000000), wk =   0.0219780
        k(   36) = (   0.5775445   0.2771206   0.0000000), wk =   0.0219780
        k(   37) = (   0.5775445   0.2660358   0.0000000), wk =   0.0219780
        k(   38) = (   0.5775445   0.2549510   0.0000000), wk =   0.0219780
        k(   39) = (   0.5775445   0.2438662   0.0000000), wk =   0.0219780
        k(   40) = (   0.5775445   0.2327813   0.0000000), wk =   0.0219780
        k(   41) = (   0.5775445   0.2216965   0.0000000), wk =   0.0219780
        k(   42) = (   0.5775445   0.2106117   0.0000000), wk =   0.0219780
        k(   43) = (   0.5775445   0.1995269   0.0000000), wk =   0.0219780
        k(   44) = (   0.5775445   0.1884420   0.0000000), wk =   0.0219780
        k(   45) = (   0.5775445   0.1773572   0.0000000), wk =   0.0219780
        k(   46) = (   0.5775445   0.1662724   0.0000000), wk =   0.0219780
        k(   47) = (   0.5775445   0.1551876   0.0000000), wk =   0.0219780
        k(   48) = (   0.5775445   0.1441027   0.0000000), wk =   0.0219780
        k(   49) = (   0.5775445   0.1330179   0.0000000), wk =   0.0219780
        k(   50) = (   0.5775445   0.1219331   0.0000000), wk =   0.0219780
        k(   51) = (   0.5775445   0.1108483   0.0000000), wk =   0.0219780
        k(   52) = (   0.5775445   0.0997634   0.0000000), wk =   0.0219780
        k(   53) = (   0.5775445   0.0886786   0.0000000), wk =   0.0219780
        k(   54) = (   0.5775445   0.0775938   0.0000000), wk =   0.0219780
        k(   55) = (   0.5775445   0.0665090   0.0000000), wk =   0.0219780
        k(   56) = (   0.5775445   0.0554241   0.0000000), wk =   0.0219780
        k(   57) = (   0.5775445   0.0443393   0.0000000), wk =   0.0219780
        k(   58) = (   0.5775445   0.0332545   0.0000000), wk =   0.0219780
        k(   59) = (   0.5775445   0.0221697   0.0000000), wk =   0.0219780
        k(   60) = (   0.5775445   0.0110848   0.0000000), wk =   0.0219780
        k(   61) = (   0.5775445   0.0000000   0.0000000), wk =   0.0219780
        k(   62) = (   0.5582930   0.0000000   0.0000000), wk =   0.0219780
        k(   63) = (   0.5390415   0.0000000   0.0000000), wk =   0.0219780
        k(   64) = (   0.5197900   0.0000000   0.0000000), wk =   0.0219780
        k(   65) = (   0.5005385   0.0000000   0.0000000), wk =   0.0219780
        k(   66) = (   0.4812871   0.0000000   0.0000000), wk =   0.0219780
        k(   67) = (   0.4620356   0.0000000   0.0000000), wk =   0.0219780
        k(   68) = (   0.4427841   0.0000000   0.0000000), wk =   0.0219780
        k(   69) = (   0.4235326   0.0000000   0.0000000), wk =   0.0219780
        k(   70) = (   0.4042811   0.0000000   0.0000000), wk =   0.0219780
        k(   71) = (   0.3850296   0.0000000   0.0000000), wk =   0.0219780
        k(   72) = (   0.3657782   0.0000000   0.0000000), wk =   0.0219780
        k(   73) = (   0.3465267   0.0000000   0.0000000), wk =   0.0219780
        k(   74) = (   0.3272752   0.0000000   0.0000000), wk =   0.0219780
        k(   75) = (   0.3080237   0.0000000   0.0000000), wk =   0.0219780
        k(   76) = (   0.2887722   0.0000000   0.0000000), wk =   0.0219780
        k(   77) = (   0.2695208   0.0000000   0.0000000), wk =   0.0219780
        k(   78) = (   0.2502693   0.0000000   0.0000000), wk =   0.0219780
        k(   79) = (   0.2310178   0.0000000   0.0000000), wk =   0.0219780
        k(   80) = (   0.2117663   0.0000000   0.0000000), wk =   0.0219780
        k(   81) = (   0.1925148   0.0000000   0.0000000), wk =   0.0219780
        k(   82) = (   0.1732633   0.0000000   0.0000000), wk =   0.0219780
        k(   83) = (   0.1540119   0.0000000   0.0000000), wk =   0.0219780
        k(   84) = (   0.1347604   0.0000000   0.0000000), wk =   0.0219780
        k(   85) = (   0.1155089   0.0000000   0.0000000), wk =   0.0219780
        k(   86) = (   0.0962574   0.0000000   0.0000000), wk =   0.0219780
        k(   87) = (   0.0770059   0.0000000   0.0000000), wk =   0.0219780
        k(   88) = (   0.0577544   0.0000000   0.0000000), wk =   0.0219780
        k(   89) = (   0.0385030   0.0000000   0.0000000), wk =   0.0219780
        k(   90) = (   0.0192515   0.0000000   0.0000000), wk =   0.0219780
        k(   91) = (   0.0000000   0.0000000   0.0000000), wk =   0.0219780

     Dense  grid:    45819 G-vectors     FFT dimensions: (  32,  32, 120)

     Estimated max dynamical RAM per process >      12.77 MB

     Estimated total dynamical RAM >     204.39 MB

     Check: negative core charge=   -0.000006

     The potential is recalculated from file :
     ./work/Al2O2.save/charge-density



     %%%%%%%%%%%%%%%%%%%%%%%%%%%%%%%%%%%%%%%%%%%%%%%%%%%%%%%%%%%%%%%%%%%%%%%%
     %                                                                      %
     % You are using vdW-DF, which was implemented by the Thonhauser group. %
     % Please cite the following two papers that made this development      %
     % possible and the two reviews that describe the various versions:     %
     %                                                                      %
     %   T. Thonhauser et al., PRL 115, 136402 (2015).                      %
     %   T. Thonhauser et al., PRB 76, 125112 (2007).                       %
     %   K. Berland et al., Rep. Prog. Phys. 78, 066501 (2015).             %
     %   D.C. Langreth et al., J. Phys.: Condens. Matter 21, 084203 (2009). %
     %                                                                      %
     % If you are calculating stress with vdW-DF, please also cite:         %
     %                                                                      %
     %   R. Sabatini et al., J. Phys.: Condens. Matter 24, 424209 (2012).   %
     %                                                                      %
     %%%%%%%%%%%%%%%%%%%%%%%%%%%%%%%%%%%%%%%%%%%%%%%%%%%%%%%%%%%%%%%%%%%%%%%%

     %%%%%%%%%%%%%%%%%%%%%%%%%%%%%%%%%%%%%%%%%%%%%%%%%%%%%%%%%%%%%%%%%%%%%%%%
     %                                                                      %
     %  vdW-DF NEWS:                                                        %
     %                                                                      %
     %  * vdW-DF3 is now available. DOI: 10.1021/acs.jctc.0c00471           %
     %    use with input_dft = 'vdW-DF3-opt1' or 'vdW-DF3-opt2'             %
     %                                                                      %
     %  * Unscreened and range-separated vdW-DF hybrid functionals          %
     %    DOI: 10.1063/1.4986522 and 10.1088/1361-648X/ac2ad2               %
     %    use with input_dft = 'vdW-DF-cx0' (etc) and 'vdW-DF-ahcx'         %
     %                                                                      %
     %%%%%%%%%%%%%%%%%%%%%%%%%%%%%%%%%%%%%%%%%%%%%%%%%%%%%%%%%%%%%%%%%%%%%%%%


     Starting wfcs are   32 randomized atomic wfcs +   38 random wfcs
     Checking if some PAW data can be deallocated... 

     Band Structure Calculation
     Davidson diagonalization with overlap

     ethr =  2.78E-11,  avg # of iterations = 63.0

     total cpu time spent up to now is      196.0 secs

     End of band structure calculation

          k = 0.0000 0.0000 0.0000 (  5737 PWs)   bands (ev):

   -13.7685 -13.6957 -13.0134 -12.9266  -0.7763   0.2063   0.7846   1.3578
     1.3613   1.4022   1.4055   1.9256   1.9291   1.9756   1.9790   2.6410
     3.2877   5.4430   6.4329   8.2702   9.2468  10.2622  13.8758  14.0175
    14.0378  14.6109  14.6311  15.2350  15.4118  15.4330  16.1584  16.1794
    16.8133  17.6986  18.4374  18.4573  19.2954  19.3160  19.8488  21.0869
    21.3486  21.3736  21.9249  22.3851  22.4290  22.4534  23.0540  23.0723
    23.2790  24.0519  24.0715  24.1815  25.4074  25.4184  25.4336  26.5729
    26.6651  26.6935  27.4155  28.7414  28.7693  30.0163  30.4588  30.4842
    30.8940  30.9192  32.0162  33.5001  33.5772  33.6027

          k = 0.0193 0.0111 0.0000 (  5739 PWs)   bands (ev):

   -13.7664 -13.6937 -13.0117 -12.9250  -0.7725   0.2035   0.7860   1.3505
     1.3566   1.3871   1.4008   1.9052   1.9248   1.9624   1.9749   2.6484
     3.3145   5.4441   6.4532   8.2842   9.2532  10.2731  13.8635  13.9782
    14.0263  14.5768  14.6207  15.2101  15.4167  15.4347  16.1597  16.1789
    16.8421  17.7332  18.3984  18.4267  19.2458  19.3012  19.9246  21.1194
    21.3089  21.3847  22.0240  22.3977  22.4183  22.4634  23.0067  23.0264
    23.2952  24.0711  24.0895  24.2303  25.4148  25.4430  25.4611  26.5887
    26.6684  26.6944  27.4039  28.7293  28.7766  30.0288  30.4648  30.4927
    30.8961  30.9207  32.0478  33.4867  33.5741  33.5962

          k = 0.0385 0.0222 0.0000 (  5739 PWs)   bands (ev):

   -13.7602 -13.6877 -13.0067 -12.9204  -0.7613   0.1947   0.7897   1.3198
     1.3378   1.3489   1.3933   1.8446   1.9180   1.9193   1.9695   2.6691
     3.3885   5.4475   6.5130   8.3256   9.2720  10.3056  13.8265  13.8318
    14.0306  14.4443  14.6273  15.1428  15.4076  15.4574  16.1420  16.2011
    16.9096  17.8248  18.2717  18.3711  19.1175  19.2919  20.0926  21.2041
    21.2141  21.4586  22.2500  22.3540  22.4259  22.5440  22.8796  22.9140
    23.3446  24.1110  24.1283  24.3657  25.4038  25.5103  25.5857  26.6273
    26.6487  26.7271  27.3803  28.6846  28.8065  30.0416  30.4803  30.5453
    30.8721  30.9539  32.1370  33.4521  33.5495  33.5968

          k = 0.0578 0.0333 0.0000 (  5745 PWs)   bands (ev):

   -13.7499 -13.6779 -12.9985 -12.9128  -0.7430   0.1796   0.7949   1.2508
     1.2734   1.3365   1.3807   1.7654   1.8503   1.9096   1.9605   2.6991
     3.4961   5.4527   6.6095   8.3933   9.3025  10.3590  13.6135  13.7651
    14.0358  14.2460  14.6385  15.0455  15.3725  15.5047  16.1111  16.2453
    16.9661  17.9414  18.1101  18.2947  19.0002  19.2658  20.2913  21.1175
    21.3555  21.5586  22.2767  22.4317  22.4996  22.6997  22.7217  22.8025
    23.4248  24.1450  24.1625  24.5663  25.3924  25.6294  25.7823  26.6098
    26.6616  26.7867  27.3794  28.6095  28.8569  30.0111  30.5003  30.6895
    30.8273  31.0092  32.2680  33.4039  33.5111  33.6107

          k = 0.0770 0.0443 0.0000 (  5755 PWs)   bands (ev):

   -13.7356 -13.6642 -12.9871 -12.9022  -0.7184   0.1577   0.7992   1.1481
     1.1900   1.3198   1.3622   1.6891   1.7660   1.8960   1.9475   2.7344
     3.6238   5.4596   6.7383   8.4853   9.3433  10.4320  13.3495  13.6791
    13.9733  14.0694  14.6511  14.9275  15.3134  15.5710  16.0768  16.3071
    16.9530  17.9339  18.0457  18.2249  18.9531  19.2165  20.4950  21.0745
    21.5159  21.6673  22.2149  22.3594  22.4944  22.6920  22.7740  23.0453
    23.5181  24.1623  24.1939  24.8142  25.3947  25.7897  26.0352  26.5628
    26.6546  26.8632  27.4454  28.5091  28.9251  29.9326  30.5268  30.7692
    30.9249  31.0743  32.4146  33.3442  33.4817  33.6390

          k = 0.0963 0.0554 0.0000 (  5763 PWs)   bands (ev):

   -13.7175 -13.6469 -12.9727 -12.8889  -0.6890   0.1290   0.7981   1.0281
     1.0766   1.2990   1.3368   1.6304   1.6745   1.8778   1.9303   2.7717
     3.7619   5.4676   6.8947   8.5992   9.3930  10.5228  13.0589  13.5699
    13.7110  14.0599  14.6618  14.7952  15.2336  15.6548  16.0446  16.3855
    16.8465  17.7404  18.0742  18.2159  19.0044  19.1516  20.6884  21.0927
    21.6177  21.7775  22.1864  22.2514  22.3077  22.8232  22.8696  23.4514
    23.5761  24.1613  24.2767  25.0990  25.4146  25.9750  26.3100  26.5156
    26.6169  26.9506  27.5894  28.3907  29.0103  29.8252  30.5602  30.7022
    31.1411  31.2254  32.5420  33.2712  33.4791  33.6983

          k = 0.1155 0.0665 0.0000 (  5763 PWs)   bands (ev):

   -13.6959 -13.6262 -12.9555 -12.8730  -0.6570   0.0947   0.7792   0.9036
     0.9381   1.2742   1.3037   1.5819   1.5978   1.8548   1.9087   2.8086
     3.9039   5.4765   7.0740   8.7323   9.4497  10.6288  12.7554  13.4211
    13.4403  14.0533  14.6524  14.6666  15.1390  15.7534  16.0179  16.4791
    16.6727  17.5318  17.9871  18.3001  19.0177  19.1942  20.8587  21.1801
    21.5458  21.8893  22.0556  22.2006  22.3370  22.9142  23.0581  23.5523
    23.8979  24.1574  24.4632  25.4129  25.4493  26.1565  26.4152  26.4868
    26.7510  27.0435  27.7761  28.2701  29.1129  29.7050  30.5992  30.6310
    31.2065  31.5628  32.6245  33.1827  33.4991  33.7364

          k = 0.1348 0.0776 0.0000 (  5761 PWs)   bands (ev):

   -13.6708 -13.6022 -12.9356 -12.8546  -0.6263   0.0583   0.7007   0.7838
     0.8124   1.2447   1.2644   1.5098   1.5790   1.8269   1.8825   2.8439
     4.0453   5.4862   7.2716   8.8818   9.5111  10.7460  12.4491  13.1237
    13.2942  14.0331  14.5017  14.6605  15.0366  15.8593  16.0028  16.4669
    16.5865  17.3248  17.8676  18.3826  18.9452  19.3706  21.0114  21.3160
    21.3361  21.8504  22.0085  22.2575  22.4504  23.0435  23.2633  23.4748
    24.1712  24.3677  24.7438  25.4932  25.7400  26.2601  26.3557  26.5383
    27.0758  27.1372  27.9112  28.2183  29.2329  29.5839  30.5560  30.6467
    31.2721  31.8946  32.6876  33.0795  33.5192  33.7197

          k = 0.1540 0.0887 0.0000 (  5763 PWs)   bands (ev):

   -13.6426 -13.5752 -12.9134 -12.8341  -0.6029   0.0258   0.5633   0.6221
     0.7484   1.2100   1.2244   1.4568   1.5797   1.7940   1.8518   2.8767
     4.1832   5.4968   7.4836   9.0449   9.5752  10.8681  12.1497  12.8264
    13.1367  13.9931  14.3453  14.6381  14.9318  15.9269  16.0420  16.2505
    16.7055  17.1335  17.7505  18.4024  18.9228  19.5614  21.0691  21.1659
    21.4633  21.6543  22.1429  22.3498  22.5254  23.1180  23.4782  23.4921
    24.2246  24.8483  25.0829  25.5432  26.0013  26.2539  26.3773  26.6948
    27.2280  27.4203  27.8562  28.3576  29.3670  29.4714  30.4899  30.6961
    31.3459  32.1299  32.8301  32.9674  33.5347  33.7153

          k = 0.1733 0.0998 0.0000 (  5761 PWs)   bands (ev):

   -13.6116 -13.5456 -12.8892 -12.8116  -0.5950   0.0058   0.4117   0.4598
     0.6661   1.1717   1.1868   1.4260   1.5950   1.7566   1.8166   2.9067
     4.3152   5.5088   7.7068   9.2190   9.6395  10.9809  11.8718  12.5350
    12.9731  13.9295  14.1854  14.5947  14.8282  15.9258  16.0326  16.1623
    16.8337  16.9663  17.6540  18.3429  18.9816  19.7455  20.7831  21.3253
    21.4689  21.5915  22.2989  22.4655  22.5467  23.0116  23.6717  23.7505
    24.3442  25.3258  25.4298  25.6172  26.0520  26.2225  26.6492  26.8707
    27.3132  27.7133  27.7699  28.5566  29.3764  29.5056  30.4431  30.7478
    31.4413  32.2033  32.8574  33.1020  33.5748  33.7293

          k = 0.1925 0.1108 0.0000 (  5761 PWs)   bands (ev):

   -13.5782 -13.5137 -12.8631 -12.7875  -0.6104   0.0043   0.2575   0.3041
     0.5618   1.1284   1.1502   1.4167   1.6192   1.7183   1.7771   2.9338
     4.4397   5.5228   7.9385   9.4017   9.7018  11.0437  11.6533  12.2564
    12.8083  13.8415  14.0249  14.5272  14.7272  15.8164  15.9118  16.3038
    16.8239  16.9680  17.5894  18.2509  19.0892  19.9185  20.4903  21.2955
    21.4765  21.6978  22.4622  22.5310  22.6063  22.8467  23.8904  24.0412
    24.5552  25.5876  25.7782  25.8499  26.0444  26.2433  27.0262  27.0304
    27.3913  27.6191  28.0428  28.7395  29.3067  29.6323  30.4363  30.7994
    31.5736  32.1908  32.7643  33.2900  33.7680  33.7815

          k = 0.2118 0.1219 0.0000 (  5761 PWs)   bands (ev):

   -13.5428 -13.4798 -12.8357 -12.7621  -0.6509   0.0060   0.1050   0.1774
     0.4435   1.0780   1.1100   1.4265   1.6249   1.7042   1.7342   2.9577
     4.5549   5.5401   8.1762   9.5909   9.7594  10.9705  11.5666  12.0064
    12.6468  13.7317  13.8666  14.4352  14.6293  15.6040  15.8964  16.4502
    16.7006  17.1039  17.5620  18.1701  19.2167  20.0822  20.1984  21.1337
    21.5955  21.7992  22.4860  22.5881  22.6840  22.8023  24.0734  24.3567
    24.8404  25.6468  25.9708  26.0535  26.1850  26.5040  27.1618  27.4167
    27.4625  27.5613  28.2696  28.8866  29.2683  29.7359  30.4939  30.8484
    31.7518  32.1579  32.7059  33.2891  33.8381  34.1903

          k = 0.2310 0.1330 0.0000 (  5745 PWs)   bands (ev):

   -13.5057 -13.4444 -12.8071 -12.7358  -0.7118  -0.0669  -0.0432   0.1564
     0.3194   1.0209   1.0627   1.4494   1.5826   1.6891   1.7427   2.9786
     4.6597   5.5619   8.4182   9.7846   9.8097  10.7699  11.5303  11.8595
    12.4924  13.6046  13.7134  14.3212  14.5343  15.3982  15.8811  16.5852
    16.5947  17.2365  17.5719  18.1249  19.3525  19.9134  20.2398  20.9831
    21.6602  21.9190  22.3986  22.5662  22.6692  23.0426  24.2339  24.6809
    25.1179  25.7378  25.9639  26.1280  26.4631  26.9252  27.2622  27.5302
    27.5977  27.7921  28.4280  28.9898  29.2645  29.8246  30.6306  30.8920
    31.9678  32.1303  32.7055  33.2140  33.9438  34.6399

          k = 0.2503 0.1441 0.0000 (  5751 PWs)   bands (ev):

   -13.4675 -13.4078 -12.7779 -12.7088  -0.7857  -0.1937  -0.1848   0.1953
     0.2165   0.9577   1.0073   1.4734   1.5224   1.6508   1.8002   2.9963
     4.7530   5.5895   8.6629   9.8485   9.9815  10.5296  11.3639  11.9105
    12.3484  13.4657  13.5676  14.1901  14.4422  15.2034  15.8663  16.4701
    16.7292  17.3593  17.6158  18.1253  19.4921  19.6411  20.3940  20.8426
    21.6790  22.0546  22.2694  22.5101  22.7239  23.2961  24.3869  24.9938
    25.2711  25.8876  26.0076  26.2455  26.6133  27.3094  27.3815  27.6174
    27.7308  28.1130  28.5568  29.0547  29.2952  29.9190  30.8444  30.9273
    32.1198  32.1923  32.7942  33.0967  34.0820  34.9592

          k = 0.2695 0.1552 0.0000 (  5745 PWs)   bands (ev):

   -13.4285 -13.3707 -12.7484 -12.6815  -0.8659  -0.3237  -0.3170   0.0757
     0.3011   0.8893   0.9446   1.4511   1.4767   1.6391   1.8658   3.0110
     4.8344   5.6240   8.9090   9.8681  10.1798  10.2905  11.1520  12.0392
    12.2174  13.3195  13.4312  14.0484  14.3529  15.0247  15.8518  16.3502
    16.8476  17.4644  17.6887  18.1706  19.3881  19.6329  20.5460  20.7115
    21.6701  22.1411  22.1948  22.4859  22.7600  23.5451  24.5345  25.2762
    25.2964  25.8986  26.3072  26.3654  26.7268  27.3708  27.5902  27.8367
    27.9207  28.3439  28.7392  29.1199  29.3592  30.0282  30.9500  31.1233
    32.1331  32.3966  32.9442  32.9956  34.2323  34.9895

          k = 0.2888 0.1663 0.0000 (  5735 PWs)   bands (ev):

   -13.3894 -13.3333 -12.7189 -12.6543  -0.9474  -0.4479  -0.4371  -0.0367
     0.3953   0.8183   0.8752   1.3758   1.4375   1.6681   1.9357   3.0225
     4.9045   5.6656   9.1553   9.8421  10.0853  10.3781  10.9493  12.1018
    12.1806  13.1694  13.3058  13.9035  14.2665  14.8671  15.8373  16.2279
    16.9416  17.5423  17.7854  18.2514  19.1623  19.7726  20.5890  20.6954
    21.6474  22.0342  22.3330  22.4831  22.7829  23.7803  24.6669  25.2717
    25.5172  25.8972  26.4249  26.6482  26.9160  27.4107  27.6697  27.8195
    28.3632  28.4883  28.9638  29.2679  29.4583  30.1465  30.9586  31.4502
    32.1736  32.5960  32.7625  33.2868  34.3492  34.9545

          k = 0.3080 0.1774 0.0000 (  5731 PWs)   bands (ev):

   -13.3506 -13.2962 -12.6899 -12.6276  -1.0265  -0.5627  -0.5442  -0.1399
     0.4853   0.7537   0.7998   1.2940   1.3757   1.7195   2.0072   3.0310
     4.9649   5.7137   9.4007   9.7090   9.9730  10.5746  10.7731  12.0042
    12.3139  13.0181  13.1923  13.7640  14.1835  14.7356  15.8217  16.1082
    17.0036  17.5828  17.9005  18.3548  18.9724  19.9085  20.4752  20.8392
    21.6234  21.9551  22.4622  22.5012  22.7999  23.9974  24.7612  25.2510
    25.7027  25.9145  26.4554  26.9267  27.1489  27.4697  27.7238  27.7662
    28.5485  28.7812  29.1943  29.5213  29.6039  30.2656  30.9533  31.8077
    32.2391  32.5595  32.8260  33.6188  34.3775  34.9278

          k = 0.3273 0.1884 0.0000 (  5719 PWs)   bands (ev):

   -13.3125 -13.2599 -12.6617 -12.6016  -1.1005  -0.6663  -0.6376  -0.2320
     0.5284   0.7167   0.7375   1.2072   1.3029   1.7799   2.0778   3.0364
     5.0184   5.7669   9.5093   9.6440   9.9056  10.6367  10.7670  11.9272
    12.4225  12.8684  13.0915  13.6408  14.1043  14.6344  15.8033  15.9967
    17.0274  17.5787  18.0284  18.4672  18.8245  20.0373  20.3700  20.9707
    21.6128  21.9056  22.5401  22.5671  22.8294  24.1946  24.7924  25.2609
    25.8196  25.9662  26.5062  27.0743  27.3171  27.5545  27.6402  27.9408
    28.5907  29.1220  29.4273  29.8115  29.8207  30.3886  30.9426  32.1725
    32.2859  32.3829  33.1010  33.9231  34.3046  34.9242

          k = 0.3465 0.1995 0.0000 (  5717 PWs)   bands (ev):

   -13.2758 -13.2249 -12.6347 -12.5766  -1.1671  -0.7577  -0.7166  -0.3120
     0.4819   0.6318   0.8033   1.1180   1.2233   1.8441   2.1452   3.0390
     5.0679   5.8232   9.3037   9.8173   9.8845  10.5491  10.9516  11.8749
    12.4830  12.7283  13.0038  13.5472  14.0295  14.5668  15.7793  15.8986
    17.0112  17.5297  18.1630  18.5765  18.7173  20.1547  20.2733  21.0792
    21.6337  21.8839  22.6009  22.6198  22.9014  24.3697  24.7662  25.2908
    25.8668  26.0663  26.5849  27.1196  27.3054  27.6227  27.6705  28.2063
    28.6822  29.3592  29.6565  30.0835  30.0947  30.5448  30.9490  32.1013
    32.4471  32.5153  33.4013  33.9382  34.3368  34.9454

          k = 0.3658 0.2106 0.0000 (  5709 PWs)   bands (ev):

   -13.2408 -13.1915 -12.6091 -12.5530  -1.2246  -0.8358  -0.7804  -0.3789
     0.3956   0.5413   0.8910   1.0404   1.1386   1.9095   2.2074   3.0387
     5.1165   5.8809   9.1063   9.7015  10.1192  10.5071  11.1222  11.8537
    12.4553  12.6239  12.9291  13.4951  13.9597  14.5352  15.7457  15.8180
    16.9598  17.4436  18.2967  18.6402  18.6732  20.1837  20.2559  21.1559
    21.6997  21.8863  22.6244  22.6847  23.0154  24.5169  24.7108  25.3177
    25.8666  26.2154  26.6654  27.1263  27.2117  27.6717  27.7456  28.5054
    28.8237  29.5152  29.8893  30.2818  30.3405  30.7814  31.0135  31.9010
    32.5447  32.7848  33.6264  33.6850  34.5002  34.9828

          k = 0.3850 0.2217 0.0000 (  5706 PWs)   bands (ev):

   -13.2079 -13.1602 -12.5853 -12.5310  -1.2718  -0.9003  -0.8287  -0.4321
     0.2964   0.4470   0.8796   1.0495   1.0676   1.9743   2.2625   3.0360
     5.1665   5.9385   8.9214   9.5682  10.3469  10.4986  11.2691  11.8733
    12.3397  12.5526  12.8674  13.4847  13.8954  14.5400  15.6975  15.7585
    16.8850  17.3304  18.4190  18.5787  18.7529  20.0993  20.3357  21.2061
    21.8074  21.9077  22.6170  22.7838  23.1478  24.6263  24.6456  25.3382
    25.8511  26.3984  26.7118  27.1258  27.1379  27.7178  27.8281  28.7994
    28.9715  29.6104  30.1332  30.4087  30.4903  31.0844  31.1306  31.7699
    32.6287  32.8293  33.4338  33.7445  34.7211  35.0166

          k = 0.4043 0.2328 0.0000 (  5694 PWs)   bands (ev):

   -13.1777 -13.1313 -12.5634 -12.5109  -1.3075  -0.9505  -0.8613  -0.4712
     0.1909   0.3498   0.7877   0.9588   1.1723   2.0371   2.3091   3.0311
     5.2194   5.9950   8.7508   9.4300  10.5098  10.5663  11.3839  11.9426
    12.1980  12.4673  12.8185  13.5019  13.8373  14.5785  15.6293  15.7230
    16.8006  17.1992  18.5105  18.5239  18.8209  20.0175  20.3906  21.2447
    21.9385  21.9437  22.6173  22.8942  23.2866  24.5817  24.6867  25.3579
    25.8524  26.5930  26.6907  27.1296  27.1347  27.7757  27.9285  29.0732
    29.0934  29.6458  30.3827  30.5096  30.5780  31.1514  31.3886  31.8048
    32.5680  32.6905  33.2389  33.9027  34.9445  35.0197

          k = 0.4235 0.2439 0.0000 (  5690 PWs)   bands (ev):

   -13.1503 -13.1052 -12.5437 -12.4927  -1.3309  -0.9862  -0.8784  -0.4961
     0.0818   0.2505   0.6840   0.8659   1.2841   2.0968   2.3465   3.0244
     5.2754   6.0497   8.5961   9.2955  10.5376  10.7679  11.4713  12.0535
    12.0582  12.3639  12.7821  13.5298  13.7856  14.6441  15.5381  15.7140
    16.7152  17.0600  18.4603  18.5596  18.8882  19.9365  20.4205  21.2823
    21.9879  22.0753  22.6409  23.0066  23.4265  24.5289  24.6965  25.3793
    25.8919  26.6059  26.7711  27.1691  27.1894  27.8606  28.0439  29.1763
    29.3230  29.6256  30.5914  30.6320  30.6492  31.0608  31.5817  31.9409
    32.2857  32.7384  32.9986  34.1691  34.9808  35.0670

          k = 0.4428 0.2550 0.0000 (  5686 PWs)   bands (ev):

   -13.1261 -13.0821 -12.5264 -12.4767  -1.3417  -1.0075  -0.8804  -0.5070
    -0.0293   0.1501   0.5776   0.7723   1.3923   2.1521   2.3745   3.0164
     5.3335   6.1026   8.4586   9.1701  10.5731  10.9485  11.5498  11.9167
    12.1998  12.2512  12.7581  13.5582  13.7407  14.7265  15.4251  15.7332
    16.6242  16.9294  18.3959  18.5513  18.9536  19.8554  20.4319  21.3220
    22.0393  22.1970  22.7003  23.1081  23.5641  24.4984  24.6723  25.3998
    25.9719  26.4890  26.8935  27.2556  27.2885  27.9851  28.1636  29.2216
    29.5365  29.5696  30.6685  30.6977  30.8413  30.9736  31.4522  32.0216
    32.2389  32.7930  32.8372  34.4575  34.9231  35.1271

          k = 0.4620 0.2660 0.0000 (  5700 PWs)   bands (ev):

   -13.1052 -13.0622 -12.5115 -12.4630  -1.3398  -1.0146  -0.8680  -0.5047
    -0.1406   0.0499   0.4710   0.6792   1.4925   2.2020   2.3938   3.0078
     5.3918   6.1533   8.3394   9.0579  10.6126  11.0997  11.6369  11.7904
    12.1361  12.3511  12.7475  13.5835  13.7027  14.8145  15.2958  15.7809
    16.5108  16.8303  18.3286  18.5022  18.9988  19.7752  20.4381  21.3628
    22.0950  22.2890  22.8018  23.1845  23.6947  24.5028  24.6418  25.4137
    26.0807  26.3558  26.9447  27.4033  27.4072  28.1513  28.2747  29.2259
    29.4870  29.7158  30.6743  30.7071  30.9408  31.0165  31.1709  31.9981
    32.2480  32.8546  32.8806  34.7062  34.8826  35.0488

          k = 0.4813 0.2771 0.0000 (  5698 PWs)   bands (ev):

   -13.0878 -13.0457 -12.4991 -12.4515  -1.3256  -1.0082  -0.8424  -0.4904
    -0.2506  -0.0485   0.3665   0.5885   1.5818   2.2455   2.4058   2.9993
     5.4471   6.2014   8.2399   8.9615  10.6515  11.2181  11.6807  11.7387
    12.0237  12.4947  12.7534  13.6051  13.6715  14.8984  15.1592  15.8537
    16.3701  16.7702  18.2625  18.4294  19.0055  19.6980  20.4557  21.4018
    22.1534  22.3467  22.9387  23.2251  23.8122  24.5502  24.6312  25.4166
    26.1661  26.2497  26.9510  27.5321  27.5858  28.3453  28.3618  29.1907
    29.4110  29.8387  30.5115  30.6968  30.9444  30.9484  31.2330  31.8981
    32.2341  32.8984  33.0433  34.6732  34.8800  35.0235

          k = 0.5005 0.2882 0.0000 (  5706 PWs)   bands (ev):

   -13.0739 -13.0324 -12.4892 -12.4423  -1.3005  -0.9897  -0.8057  -0.4664
    -0.3568  -0.1428   0.2667   0.5023   1.6573   2.2816   2.4123   2.9915
     5.4965   6.2457   8.1609   8.8834  10.6839  11.3079  11.5942  11.8464
    11.9170  12.6123  12.7843  13.6233  13.6471  14.9721  15.0255  15.9436
    16.2191  16.7351  18.2024  18.3486  18.9671  19.6271  20.4950  21.4368
    22.2129  22.3744  23.0952  23.2293  23.9088  24.6374  24.6588  25.4060
    26.0193  26.3700  26.9354  27.6460  27.7780  28.4065  28.5410  29.1335
    29.3577  29.9221  30.2277  30.6499  30.8726  30.9919  31.4256  31.7662
    32.2570  32.9116  33.1803  34.4144  34.9112  35.1385

          k = 0.5198 0.2993 0.0000 (  5704 PWs)   bands (ev):

   -13.0635 -13.0224 -12.4817 -12.4354  -1.2667  -0.9615  -0.7611  -0.4562
    -0.4370  -0.2287   0.1753   0.4237   1.7168   2.3097   2.4153   2.9851
     5.5369   6.2843   8.1031   8.8249  10.7046  11.3769  11.5377  11.8187
    11.9440  12.6897  12.8446  13.6282  13.6389  14.9054  15.0327  16.0374
    16.0774  16.7110  18.1530  18.2751  18.8919  19.5662  20.5538  21.4671
    22.2710  22.3786  23.2065  23.2558  23.9782  24.7313  24.7503  25.3823
    25.8281  26.5230  26.9106  27.7137  27.9562  28.4127  28.7052  29.0780
    29.3543  29.9658  30.0020  30.5352  30.8292  31.0435  31.6307  31.6595
    32.3124  32.8936  33.2214  34.1940  34.9582  35.1909

          k = 0.5390 0.3104 0.0000 (  5722 PWs)   bands (ev):

   -13.0563 -13.0155 -12.4765 -12.4306  -1.2293  -0.9283  -0.7141  -0.5434
    -0.4124  -0.2964   0.0979   0.3576   1.7587   2.3294   2.4167   2.9806
     5.5664   6.3145   8.0659   8.7863  10.7108  11.4298  11.5154  11.7317
    12.0163  12.7439  12.9061  13.6161  13.6502  14.8098  15.0786  15.9614
    16.1192  16.6917  18.1174  18.2225  18.7996  19.5192  20.6182  21.4939
    22.3233  22.3666  23.1713  23.4051  24.0183  24.8430  24.8679  25.3487
    25.6207  26.6788  26.8853  27.6858  28.0927  28.4430  28.8102  29.0097
    29.4300  29.7931  30.0919  30.3904  30.7912  30.9960  31.6609  31.8254
    32.3978  32.8429  33.1397  34.0519  35.0027  35.2002

          k = 0.5583 0.3215 0.0000 (  5722 PWs)   bands (ev):

   -13.0522 -13.0116 -12.4736 -12.4279  -1.1968  -0.8983  -0.6731  -0.6099
    -0.4140  -0.3233   0.0430   0.3111   1.7828   2.3409   2.4176   2.9780
     5.5838   6.3337   8.0470   8.7663  10.7065  11.4663  11.5241  11.6606
    12.0562  12.7913  12.9381  13.6093  13.6578  14.7483  15.1083  15.8849
    16.1739  16.6769  18.0968  18.1985  18.7175  19.4894  20.6693  21.5168
    22.3488  22.3626  23.1387  23.5227  24.0319  24.9641  24.9762  25.3136
    25.4187  26.8154  26.8669  27.5796  28.1693  28.5397  28.8559  28.8990
    29.5919  29.7260  30.0343  30.4088  30.7545  30.8289  31.7520  31.9715
    32.5325  32.7682  32.9560  33.9840  35.0272  35.0997

          k = 0.5775 0.3325 0.0000 (  5724 PWs)   bands (ev):

   -13.0509 -13.0104 -12.4727 -12.4270  -1.1827  -0.8851  -0.6515  -0.6407
    -0.4257  -0.3221   0.0221   0.2936   1.7904   2.3445   2.4181   2.9772
     5.5894   6.3402   8.0422   8.7610  10.7022  11.4813  11.5405  11.6244
    12.0670  12.8193  12.9393  13.6073  13.6606  14.7271  15.1192  15.8575
    16.1928  16.6706  18.0902  18.1955  18.6804  19.4790  20.6895  21.5287
    22.3395  22.3787  23.1243  23.5734  24.0314  25.0041  25.0666  25.2927
    25.3035  26.8602  26.8789  27.5127  28.1908  28.6348  28.8000  28.8659
    29.7171  29.8033  29.8291  30.6057  30.6117  30.7351  31.8093  32.0298
    32.7168  32.7226  32.7394  33.9675  35.0138  35.0704

          k = 0.5775 0.3215 0.0000 (  5728 PWs)   bands (ev):

   -13.0512 -13.0107 -12.4729 -12.4272  -1.1869  -0.8891  -0.6550  -0.6347
    -0.4211  -0.3239   0.0279   0.2985   1.7887   2.3437   2.4179   2.9773
     5.5882   6.3387   8.0427   8.7616  10.7041  11.4759  11.5335  11.6360
    12.0655  12.8052  12.9452  13.6077  13.6597  14.7326  15.1158  15.8650
    16.1881  16.6726  18.0919  18.1944  18.6930  19.4817  20.6836  21.5235
    22.3426  22.3734  23.1289  23.5569  24.0326  24.9932  25.0392  25.3008
    25.3376  26.8602  26.8623  27.5347  28.1867  28.5940  28.8414  28.8648
    29.6919  29.7175  29.9381  30.4928  30.7271  30.7429  31.7902  32.0104
    32.6263  32.7393  32.8443  33.9695  35.0244  35.0710

          k = 0.5775 0.3104 0.0000 (  5732 PWs)   bands (ev):

   -13.0520 -13.0115 -12.4735 -12.4278  -1.1990  -0.9006  -0.6619  -0.6209
    -0.4077  -0.3293   0.0447   0.3125   1.7839   2.3413   2.4173   2.9778
     5.5844   6.3341   8.0443   8.7634  10.7111  11.4609  11.5196  11.6635
    12.0615  12.7712  12.9577  13.6086  13.6573  14.7477  15.1068  15.8855
    16.1759  16.6794  18.0962  18.1915  18.7279  19.4895  20.6664  21.5079
    22.3525  22.3592  23.1424  23.5144  24.0324  24.9642  24.9979  25.3102
    25.4079  26.8185  26.8668  27.5890  28.1751  28.5229  28.8607  28.9121
    29.5718  29.7142  30.0500  30.3841  30.7646  30.8460  31.7463  31.9508
    32.5626  32.7831  32.9521  33.9752  35.0527  35.0701

          k = 0.5775 0.2993 0.0000 (  5728 PWs)   bands (ev):

   -13.0534 -13.0128 -12.4745 -12.4287  -1.2182  -0.9187  -0.6746  -0.5970
    -0.3889  -0.3353   0.0718   0.3355   1.7763   2.3374   2.4160   2.9784
     5.5783   6.3264   8.0459   8.7655  10.7246  11.4353  11.5052  11.6998
    12.0563  12.7215  12.9734  13.6096  13.6532  14.7716  15.0919  15.9185
    16.1577  16.6916  18.1032  18.1877  18.7841  19.5021  20.6378  21.4794
    22.3356  22.3695  23.1649  23.4500  24.0273  24.9213  24.9670  25.3192
    25.4895  26.7652  26.8738  27.6651  28.1574  28.4440  28.8544  28.9853
    29.4535  29.7104  30.1292  30.3011  30.8008  30.9615  31.6949  31.8552
    32.5302  32.8458  33.0544  33.9829  35.0651  35.0992

          k = 0.5775 0.2882 0.0000 (  5716 PWs)   bands (ev):

   -13.0553 -13.0146 -12.4759 -12.4300  -1.2432  -0.9420  -0.6933  -0.5635
    -0.3802  -0.3274   0.1081   0.3663   1.7663   2.3321   2.4141   2.9792
     5.5699   6.3161   8.0468   8.7668  10.7459  11.3984  11.4931  11.7423
    12.0505  12.6608  12.9900  13.6105  13.6474  14.8033  15.0711  15.9630
    16.1349  16.7101  18.1126  18.1853  18.8583  19.5191  20.5977  21.4364
    22.3036  22.3908  23.1960  23.3698  24.0153  24.8676  24.9544  25.3245
    25.5742  26.7095  26.8821  27.7543  28.1348  28.3629  28.8440  29.0508
    29.3410  29.7102  30.1059  30.3047  30.8488  31.0679  31.6599  31.7388
    32.5200  32.9172  33.1446  33.9928  35.0612  35.1572

          k = 0.5775 0.2771 0.0000 (  5716 PWs)   bands (ev):

   -13.0576 -13.0168 -12.4776 -12.4315  -1.2722  -0.9691  -0.7167  -0.5221
    -0.3923  -0.2956   0.1523   0.4041   1.7543   2.3257   2.4112   2.9800
     5.5596   6.3033   8.0461   8.7666  10.7759  11.3503  11.4845  11.7898
    12.0434  12.5932  13.0061  13.6108  13.6399  14.8418  15.0447  16.0179
    16.1089  16.7355  18.1245  18.1866  18.9470  19.5403  20.5466  21.3784
    22.2636  22.4129  23.2350  23.2801  23.9980  24.8051  24.9612  25.3243
    25.6581  26.6562  26.8908  27.8511  28.1079  28.2818  28.8255  29.1006
    29.2383  29.7203  30.0256  30.3380  30.9034  31.1621  31.6201  31.6640
    32.5211  32.9881  33.2157  34.0074  35.0582  35.2045

          k = 0.5775 0.2660 0.0000 (  5710 PWs)   bands (ev):

   -13.0603 -13.0194 -12.4796 -12.4334  -1.3041  -0.9987  -0.7434  -0.4744
    -0.4128  -0.2526   0.2029   0.4475   1.7406   2.3183   2.4073   2.9807
     5.5475   6.2883   8.0428   8.7639  10.8153  11.2917  11.4797  11.8420
    12.0327  12.5231  13.0212  13.6102  13.6307  14.8860  15.0130  16.0806
    16.0825  16.7681  18.1388  18.1937  19.0463  19.5652  20.4852  21.3056
    22.2166  22.4305  23.1869  23.2812  23.9805  24.7352  24.9852  25.3175
    25.7379  26.6078  26.8988  27.9521  28.0775  28.2023  28.7927  29.1278
    29.1500  29.7463  29.9473  30.3349  30.9546  31.2498  31.5183  31.7165
    32.5259  33.0509  33.2605  34.0312  35.0585  35.2110

          k = 0.5775 0.2550 0.0000 (  5710 PWs)   bands (ev):

   -13.0633 -13.0223 -12.4818 -12.4355  -1.3377  -1.0297  -0.7725  -0.4369
    -0.4214  -0.2039   0.2587   0.4957   1.7256   2.3100   2.4024   2.9813
     5.5339   6.2715   8.0364   8.7583  10.8642  11.2238  11.4788  11.8991
    12.0148  12.4557  13.0353  13.6083  13.6201  14.9348  14.9766  16.0519
    16.1546  16.8083  18.1557  18.2077  19.1521  19.5932  20.4149  21.2186
    22.1633  22.4376  23.0960  23.3337  23.9698  24.6587  25.0225  25.3036
    25.8099  26.5661  26.9055  28.0439  28.0538  28.1267  28.7405  29.0775
    29.1292  29.7896  29.8847  30.2867  30.9866  31.3430  31.4564  31.8078
    32.5294  33.0995  33.2748  34.0684  35.0644  35.2185

          k = 0.5775 0.2439 0.0000 (  5716 PWs)   bands (ev):

   -13.0667 -13.0255 -12.4843 -12.4378  -1.3721  -1.0614  -0.8030  -0.4626
    -0.3646  -0.1513   0.3187   0.5476   1.7096   2.3009   2.3965   2.9818
     5.5189   6.2533   8.0263   8.7493  10.9226  11.1482  11.4818  11.9614
    11.9845  12.3973  13.0485  13.6035  13.6096  14.9360  14.9873  16.0226
    16.2341  16.8560  18.1752  18.2294  19.2595  19.6238  20.3384  21.1184
    22.1042  22.4288  23.0119  23.3919  23.9725  24.5763  25.0694  25.2825
    25.8691  26.5335  26.9104  28.0080  28.0523  28.1578  28.6699  29.0155
    29.1057  29.8424  29.8477  30.2045  30.9857  31.4460  31.4542  31.9227
    32.5274  33.1297  33.2604  34.1197  35.0779  35.2239

          k = 0.5775 0.2328 0.0000 (  5708 PWs)   bands (ev):

   -13.0703 -13.0289 -12.4870 -12.4403  -1.4068  -1.0933  -0.8342  -0.4893
    -0.3045  -0.0958   0.3820   0.6026   1.6928   2.2911   2.3894   2.9820
     5.5029   6.2338   8.0122   8.7369  10.9896  11.0665  11.4886  11.9372
    12.0291  12.3532  13.0607  13.5914  13.6036  14.8921  15.0424  15.9935
    16.3197  16.9110  18.1976  18.2591  19.3609  19.6564  20.2621  21.0062
    22.0400  22.4011  22.9375  23.4551  23.9938  24.4888  25.1226  25.2542
    25.9090  26.5142  26.9133  27.9701  27.9872  28.2552  28.5873  28.9543
    29.0606  29.8222  29.9124  30.1067  30.9621  31.5043  31.5570  32.0504
    32.5162  33.1395  33.2255  34.1820  35.0995  35.2229

          k = 0.5775 0.2217 0.0000 (  5708 PWs)   bands (ev):

   -13.0741 -13.0325 -12.4898 -12.4430  -1.4412  -1.1250  -0.8657  -0.5164
    -0.2418  -0.0382   0.4477   0.6599   1.6755   2.2808   2.3813   2.9820
     5.4859   6.2135   7.9938   8.7209  10.9793  11.0647  11.4997  11.8718
    12.1027  12.3252  13.0721  13.5762  13.5982  14.8457  15.0994  15.9649
    16.4106  16.9729  18.2231  18.2968  19.4425  19.6904  20.1983  20.8829
    21.9709  22.3554  22.8733  23.5228  24.0361  24.3969  25.1791  25.2188
    25.9228  26.5133  26.9145  27.9274  27.9323  28.3440  28.4993  28.8870
    28.9999  29.8030  29.9817  30.0234  30.9394  31.5868  31.6687  32.1842
    32.4921  33.1298  33.1815  34.2506  35.1279  35.2114

          k = 0.5775 0.2106 0.0000 (  5706 PWs)   bands (ev):

   -13.0780 -13.0363 -12.4928 -12.4457  -1.4751  -1.1561  -0.8969  -0.5435
    -0.1773   0.0210   0.5153   0.7189   1.6579   2.2702   2.3722   2.9817
     5.4682   6.1925   7.9711   8.7017  10.8891  11.1446  11.5159  11.7916
    12.1827  12.3107  13.0829  13.5596  13.5920  14.7974  15.1574  15.9369
    16.5061  17.0412  18.2516  18.3420  19.4817  19.7252  20.1696  20.7500
    21.8973  22.2963  22.8174  23.5941  24.0992  24.3014  25.1762  25.2367
    25.9078  26.5329  26.9142  27.8775  27.8920  28.4096  28.4131  28.8116
    28.9356  29.7408  30.0034  30.0528  30.9321  31.6850  31.7763  32.3193
    32.4517  33.1051  33.1402  34.3217  35.1602  35.1872

          k = 0.5775 0.1995 0.0000 (  5714 PWs)   bands (ev):

   -13.0820 -13.0402 -12.4958 -12.4486  -1.5081  -1.1863  -0.9276  -0.5701
    -0.1113   0.0812   0.5841   0.7789   1.6402   2.2592   2.3621   2.9811
     5.4499   6.1711   7.9443   8.6793  10.7965  11.2260  11.5398  11.7016
    12.2693  12.3054  13.0931  13.5420  13.5849  14.7481  15.2158  15.9095
    16.6056  17.1151  18.2834  18.3942  19.4573  19.7603  20.1970  20.6087
    21.8194  22.2295  22.7674  23.6680  24.1806  24.2043  25.1270  25.2919
    25.8683  26.5701  26.9130  27.8345  27.8523  28.3216  28.4375  28.7293
    28.8929  29.6348  30.0488  30.1244  30.9433  31.7902  31.8748  32.3949
    32.4503  33.0740  33.1104  34.3923  35.1500  35.1926

          k = 0.5775 0.1884 0.0000 (  5710 PWs)   bands (ev):

   -13.0861 -13.0441 -12.4989 -12.4515  -1.5400  -1.2156  -0.9575  -0.5962
    -0.0444   0.1418   0.6536   0.8396   1.6226   2.2480   2.3511   2.9802
     5.4313   6.1496   7.9138   8.6542  10.7027  11.3024  11.5765  11.6063
    12.3058  12.3629  13.1027  13.5237  13.5771  14.6984  15.2738  15.8827
    16.7085  17.1939  18.3185  18.4527  19.3730  19.7952  20.2776  20.4603
    21.7375  22.1605  22.7213  23.7419  24.1068  24.2788  25.0716  25.3400
    25.8141  26.6190  26.9116  27.7983  27.8133  28.2352  28.3927  28.6424
    28.9002  29.5149  30.1276  30.1974  30.9699  31.8951  31.9590  32.3268
    32.5687  33.0508  33.0966  34.4609  35.1019  35.2212

          k = 0.5775 0.1774 0.0000 (  5716 PWs)   bands (ev):

   -13.0903 -13.0480 -12.5021 -12.4544  -1.5707  -1.2437  -0.9863  -0.6214
     0.0229   0.2024   0.7231   0.9005   1.6052   2.2366   2.3393   2.9790
     5.4125   6.1282   7.8801   8.6267  10.6087  11.3647  11.5073  11.6345
    12.3095  12.4633  13.1117  13.5049  13.5688  14.6488  15.3310  15.8562
    16.8142  17.2767  18.3567  18.5163  19.2490  19.8294  20.3060  20.3923
    21.6519  22.0929  22.6780  23.8057  24.0212  24.3888  25.0104  25.3724
    25.7602  26.6740  26.9104  27.7676  27.7754  28.1514  28.2870  28.5528
    28.9515  29.3938  30.2254  30.2720  31.0064  31.9878  32.0229  32.2627
    32.6602  33.0577  33.0997  34.5264  35.0455  35.2431

          k = 0.5775 0.1663 0.0000 (  5716 PWs)   bands (ev):

   -13.0944 -13.0520 -12.5052 -12.4573  -1.6000  -1.2705  -1.0140  -0.6456
     0.0901   0.2627   0.7923   0.9610   1.5881   2.2251   2.3268   2.9774
     5.3937   6.1070   7.8436   8.5974  10.5154  11.4067  11.4103  11.7160
    12.3150  12.5706  13.1202  13.4862  13.5603  14.5997  15.3867  15.8296
    16.9224  17.3626  18.3979  18.5833  19.1025  19.8626  20.1480  20.5252
    21.5626  22.0293  22.6369  23.8124  23.9940  24.5074  24.9446  25.3748
    25.7263  26.7307  26.9102  27.7359  27.7439  28.0704  28.1476  28.4622
    29.0226  29.2761  30.3352  30.3476  31.0473  32.0325  32.0596  32.2437
    32.7150  33.1137  33.1184  34.5880  34.9841  35.2570

          k = 0.5775 0.1552 0.0000 (  5722 PWs)   bands (ev):

   -13.0984 -13.0558 -12.5083 -12.4602  -1.6278  -1.2960  -1.0404  -0.6688
     0.1569   0.3220   0.8604   1.0208   1.5715   2.2137   2.3136   2.9756
     5.3749   6.0863   7.8050   8.5666  10.4238  11.3109  11.4365  11.8169
    12.3213  12.6845  13.1281  13.4677  13.5516  14.5515  15.4406  15.8027
    17.0324  17.4507  18.4418  18.6490  18.9471  19.8944  19.9876  20.6676
    21.4702  21.9714  22.5976  23.7382  24.0491  24.6300  24.8752  25.3393
    25.7265  26.7858  26.9113  27.6996  27.7204  27.9919  27.9930  28.3719
    29.0974  29.1640  30.4208  30.4542  31.0889  32.0039  32.0646  32.3006
    32.7476  33.1509  33.2111  34.6444  34.9217  35.2623

          k = 0.5775 0.1441 0.0000 (  5710 PWs)   bands (ev):

   -13.1023 -13.0596 -12.5113 -12.4630  -1.6539  -1.3199  -1.0653  -0.6906
     0.2226   0.3800   0.9272   1.0793   1.5554   2.2023   2.3000   2.9735
     5.3565   6.0662   7.7651   8.5348  10.3346  11.2157  11.4548  11.9303
    12.3278  12.8044  13.1355  13.4499  13.5430  14.5042  15.4921  15.7750
    17.1436  17.5402  18.4879  18.6789  18.8220  19.8272  19.9245  20.8144
    21.3749  21.9202  22.5600  23.6404  24.1290  24.7477  24.8042  25.2822
    25.7540  26.8358  26.9141  27.6627  27.6991  27.8321  27.9189  28.2832
    29.0582  29.1671  30.4901  30.5774  31.1312  31.9534  32.0396  32.3852
    32.7795  33.1957  33.3288  34.6908  34.8662  35.2595

          k = 0.5775 0.1330 0.0000 (  5710 PWs)   bands (ev):

   -13.1061 -13.0632 -12.5142 -12.4657  -1.6784  -1.3424  -1.0886  -0.7112
     0.2869   0.4362   0.9920   1.1363   1.5400   2.1909   2.2860   2.9712
     5.3385   6.0469   7.7244   8.5026  10.2487  11.1239  11.4673  12.0512
    12.3342  12.9298  13.1422  13.4332  13.5348  14.4579  15.5408  15.7459
    17.2552  17.6304  18.5354  18.5617  18.8406  19.6692  19.9526  20.9618
    21.2774  21.8767  22.5238  23.5384  24.2131  24.7342  24.8389  25.2396
    25.7950  26.8755  26.9187  27.6242  27.6725  27.6825  27.8501  28.1968
    28.9599  29.2239  30.5514  30.7026  31.1778  31.9093  31.9927  32.4697
    32.8179  33.2506  33.4538  34.7074  34.8403  35.2495

          k = 0.5775 0.1219 0.0000 (  5710 PWs)   bands (ev):

   -13.1097 -13.0666 -12.5170 -12.4683  -1.7011  -1.3632  -1.1104  -0.7303
     0.3492   0.4901   1.0543   1.1911   1.5253   2.1798   2.2718   2.9687
     5.3212   6.0285   7.6838   8.4705  10.1668  11.0364  11.4761  12.1761
    12.3402  13.0599  13.1483  13.4181  13.5270  14.4126  15.5864  15.7150
    17.3665  17.7206  18.3937  18.5843  18.9066  19.5173  19.9787  21.1058
    21.1780  21.8424  22.4890  23.4366  24.2928  24.6709  24.8619  25.2622
    25.8409  26.8961  26.9252  27.5359  27.5825  27.6588  27.7880  28.1138
    28.8690  29.2617  30.6043  30.8265  31.2341  31.8771  31.9345  32.5456
    32.8608  33.3124  33.5798  34.6784  34.8640  35.2333

          k = 0.5775 0.1108 0.0000 (  5712 PWs)   bands (ev):

   -13.1131 -13.0699 -12.5196 -12.4707  -1.7221  -1.3823  -1.1304  -0.7480
     0.4090   0.5413   1.1135   1.2435   1.5115   2.1689   2.2576   2.9660
     5.3045   6.0112   7.6440   8.4390  10.0895  10.9540  11.4823  12.3024
    12.3458  13.1537  13.1936  13.4052  13.5198  14.3681  15.6280  15.6821
    17.4762  17.8103  18.2216  18.6326  18.9705  19.3787  20.0026  21.0777
    21.2416  21.8204  22.4555  23.3373  24.3538  24.6282  24.8132  25.3581
    25.8874  26.8834  26.9334  27.4283  27.5351  27.6387  27.7341  28.0354
    28.7858  29.2747  30.6525  30.9450  31.3037  31.8553  31.8751  32.6090
    32.9044  33.3768  33.7036  34.6354  34.9102  35.2117

          k = 0.5775 0.0998 0.0000 (  5718 PWs)   bands (ev):

   -13.1163 -13.0729 -12.5220 -12.4730  -1.7411  -1.3998  -1.1488  -0.7641
     0.4657   0.5894   1.1692   1.2929   1.4985   2.1582   2.2435   2.9633
     5.2888   5.9951   7.6056   8.4087  10.0175  10.8774  11.4867  12.3506
    12.4279  13.1585  13.3296  13.3955  13.5133  14.3243  15.6408  15.6712
    17.5830  17.8990  18.0521  18.6796  19.0070  19.2748  20.0244  20.9773
    21.3608  21.8167  22.4232  23.2421  24.3694  24.6328  24.7336  25.4884
    25.9323  26.8250  26.9433  27.3658  27.4815  27.6201  27.6887  27.9627
    28.7103  29.2596  30.7030  31.0522  31.3857  31.8242  31.8408  32.6580
    32.9452  33.4377  33.8236  34.5998  34.9628  35.1857

          k = 0.5775 0.0887 0.0000 (  5720 PWs)   bands (ev):

   -13.1192 -13.0757 -12.5243 -12.4751  -1.7583  -1.4155  -1.1653  -0.7787
     0.5189   0.6339   1.2208   1.3389   1.4866   2.1480   2.2298   2.9606
     5.2742   5.9803   7.5693   8.3799   9.9514  10.8071  11.4897  12.3549
    12.5501  13.1626  13.3885  13.4679  13.5076  14.2810  15.6020  15.7043
    17.6851  17.8886  17.9870  18.7237  18.9702  19.2514  20.0443  20.8779
    21.4508  21.8419  22.3922  23.1522  24.3375  24.6464  24.6867  25.6297
    25.9748  26.7285  26.9546  27.3403  27.4228  27.6057  27.6502  27.8975
    28.6425  29.2169  30.7620  31.1401  31.4758  31.7921  31.8308  32.6917
    32.9809  33.4878  33.9385  34.5812  35.0179  35.1559

          k = 0.5775 0.0776 0.0000 (  5716 PWs)   bands (ev):

   -13.1218 -13.0782 -12.5263 -12.4770  -1.7735  -1.4295  -1.1799  -0.7916
     0.5678   0.6743   1.2677   1.3811   1.4758   2.1383   2.2168   2.9580
     5.2608   5.9670   7.5356   8.3533   9.8917  10.7437  11.4917  12.3586
    12.6661  13.1661  13.3881  13.5025  13.6039  14.2383  15.5571  15.7351
    17.7343  17.7807  18.0735  18.7635  18.8766  19.2919  20.0626  20.7809
    21.5027  21.9024  22.3629  23.0689  24.2862  24.5611  24.7618  25.7693
    26.0161  26.6164  26.9669  27.3278  27.3615  27.6007  27.6157  27.8412
    28.5825  29.1507  30.8320  31.1997  31.5660  31.7885  31.8260  32.7105
    33.0100  33.5201  34.0475  34.5858  35.0730  35.1229

          k = 0.5775 0.0665 0.0000 (  5724 PWs)   bands (ev):

   -13.1241 -13.0804 -12.5281 -12.4787  -1.7868  -1.4416  -1.1927  -0.8029
     0.6120   0.7102   1.3095   1.4189   1.4663   2.1292   2.2046   2.9555
     5.2489   5.9551   7.5053   8.3292   9.8388  10.6878  11.4929  12.3617
    12.7724  13.1689  13.3948  13.4983  13.7357  14.1971  15.5076  15.7622
    17.5924  17.8669  18.1587  18.7734  18.7978  19.3491  20.0797  20.6877
    21.5236  21.9883  22.3358  22.9936  24.2319  24.4821  24.8411  25.8886
    26.0662  26.5092  26.9795  27.3001  27.3083  27.5827  27.6102  27.7954
    28.5303  29.0678  30.9122  31.2269  31.6410  31.8168  31.8352  32.7160
    33.0317  33.5306  34.1499  34.6163  35.0872  35.1250

          k = 0.5775 0.0554 0.0000 (  5720 PWs)   bands (ev):

   -13.1261 -13.0823 -12.5297 -12.4801  -1.7980  -1.4519  -1.2035  -0.8125
     0.6507   0.7414   1.3455   1.4509   1.4593   2.1210   2.1937   2.9533
     5.2384   5.9450   7.4787   8.3081   9.7934  10.6397  11.4936  12.3643
    12.8649  13.1713  13.4110  13.4949  13.8569  14.1608  15.4540  15.7852
    17.4655  17.9423  18.2417  18.6781  18.8240  19.4063  20.0962  20.6000
    21.5281  22.0819  22.3116  22.9273  24.1810  24.4120  24.9175  25.9527
    26.1474  26.4266  26.9918  27.2419  27.2725  27.5505  27.6340  27.7603
    28.4858  28.9761  30.9997  31.2285  31.6755  31.8694  31.8777  32.7109
    33.0460  33.5200  34.2447  34.6706  35.0496  35.1687

          k = 0.5775 0.0443 0.0000 (  5720 PWs)   bands (ev):

   -13.1278 -13.0839 -12.5310 -12.4813  -1.8072  -1.4604  -1.2124  -0.8204
     0.6835   0.7675   1.3751   1.4511   1.4807   2.1137   2.1841   2.9513
     5.2296   5.9365   7.4563   8.2904   9.7556  10.5998  11.4939  12.3663
    12.9394  13.1730  13.4385  13.4921  13.9496  14.1439  15.3978  15.8041
    17.3566  18.0050  18.3206  18.5959  18.8419  19.4579  20.1129  20.5198
    21.5258  22.1691  22.2923  22.8713  24.1365  24.3526  24.9866  25.9592
    26.2313  26.4035  27.0027  27.1898  27.2199  27.5198  27.6673  27.7350
    28.4493  28.8835  31.0908  31.2161  31.6683  31.9325  31.9490  32.6985
    33.0536  33.4938  34.3310  34.7422  35.0108  35.1983

          k = 0.5775 0.0333 0.0000 (  5716 PWs)   bands (ev):

   -13.1291 -13.0852 -12.5320 -12.4823  -1.8144  -1.4670  -1.2194  -0.8265
     0.7096   0.7881   1.3975   1.4472   1.5029   2.1078   2.1764   2.9497
     5.2227   5.9298   7.4385   8.2762   9.7260  10.5685  11.4940  12.3679
    12.9938  13.1744  13.4762  13.4901  13.9780  14.1785  15.3422  15.8188
    17.2684  18.0543  18.3921  18.5297  18.8511  19.5007  20.1303  20.4494
    21.5214  22.2329  22.2876  22.8265  24.1003  24.3052  25.0450  25.9350
    26.2536  26.4798  27.0104  27.1469  27.1527  27.4926  27.7036  27.7178
    28.4206  28.7981  31.1819  31.1995  31.6383  31.9937  32.0245  32.6826
    33.0558  33.4598  34.4068  34.8227  34.9723  35.2093

          k = 0.5775 0.0222 0.0000 (  5714 PWs)   bands (ev):

   -13.1300 -13.0861 -12.5327 -12.4830  -1.8196  -1.4717  -1.2244  -0.8309
     0.7287   0.8029   1.4117   1.4463   1.5191   2.1033   2.1707   2.9485
     5.2176   5.9250   7.4255   8.2660   9.7046  10.5459  11.4940  12.3689
    13.0290  13.1753  13.4885  13.5183  13.9584  14.2443  15.2926  15.8293
    17.2036  18.0896  18.4507  18.4818  18.8527  19.5328  20.1481  20.3914
    21.5172  22.2442  22.3217  22.7939  24.0737  24.2708  25.0894  25.9020
    26.2521  26.5967  27.0135  27.0725  27.1179  27.4711  27.7067  27.7369
    28.4001  28.7280  31.1847  31.2684  31.5955  32.0439  32.0889  32.6671
    33.0548  33.4267  34.4688  34.9018  34.9375  35.2020

          k = 0.5775 0.0111 0.0000 (  5718 PWs)   bands (ev):

   -13.1306 -13.0866 -12.5331 -12.4834  -1.8227  -1.4745  -1.2274  -0.8336
     0.7403   0.8119   1.4180   1.4479   1.5291   2.1006   2.1671   2.9478
     5.2146   5.9221   7.4177   8.2597   9.6917  10.5323  11.4940  12.3696
    13.0481  13.1758  13.4877  13.5532  13.9327  14.2967  15.2570  15.8356
    17.1638  18.1108  18.4509  18.4923  18.8504  19.5526  20.1637  20.3508
    21.5144  22.2396  22.3550  22.7740  24.0574  24.2498  25.1173  25.8763
    26.2509  26.7100  26.9864  27.0129  27.1024  27.4573  27.7006  27.7604
    28.3877  28.6814  31.1747  31.3429  31.5478  32.0768  32.1322  32.6557
    33.0528  33.4028  34.5113  34.9108  34.9674  35.1832

          k = 0.5775 0.0000 0.0000 (  5726 PWs)   bands (ev):

   -13.1307 -13.0868 -12.5333 -12.4835  -1.8237  -1.4755  -1.2284  -0.8345
     0.7442   0.8149   1.4195   1.4491   1.5324   2.0996   2.1659   2.9475
     5.2135   5.9212   7.4150   8.2576   9.6873  10.5278  11.4939  12.3698
    13.0541  13.1760  13.4874  13.5673  13.9216  14.3162  15.2439  15.8377
    17.1504  18.1179  18.4412  18.5065  18.8488  19.5593  20.1706  20.3354
    21.5134  22.2375  22.3669  22.7674  24.0519  24.2428  25.1269  25.8668
    26.2507  26.7743  26.9320  27.0115  27.0980  27.4525  27.6987  27.7689
    28.3836  28.6650  31.1712  31.3798  31.5199  32.0882  32.1476  32.6515
    33.0519  33.3941  34.5268  34.9008  34.9955  35.1710

          k = 0.5583 0.0000 0.0000 (  5698 PWs)   bands (ev):

   -13.1327 -13.0887 -12.5346 -12.4848  -1.8183  -1.4696  -1.2233  -0.8293
     0.7457   0.8164   1.4074   1.4503   1.5335   2.0948   2.1674   2.9491
     5.2062   5.9234   7.4264   8.2727   9.6875  10.5243  11.4954  12.3660
    13.0480  13.1725  13.4933  13.5698  13.9264  14.3186  15.2385  15.8403
    17.1559  18.1121  18.4469  18.5122  18.8414  19.5492  20.1710  20.3372
    21.5019  22.2418  22.3416  22.7735  24.0663  24.2512  25.0963  25.8743
    26.2552  26.7531  26.9317  26.9489  27.1286  27.5017  27.7004  27.7887
    28.3912  28.6646  31.1622  31.3785  31.4907  32.0987  32.1453  32.5730
    33.0340  33.3996  34.4859  34.8986  34.9873  35.1026

          k = 0.5390 0.0000 0.0000 (  5718 PWs)   bands (ev):

   -13.1386 -13.0943 -12.5387 -12.4885  -1.8021  -1.4518  -1.2083  -0.8137
     0.7502   0.8207   1.3720   1.4540   1.5370   2.0805   2.1706   2.9533
     5.1858   5.9283   7.4610   8.3173   9.6874  10.5139  11.4995  12.3549
    13.0302  13.1621  13.5108  13.5774  13.9403  14.3255  15.2223  15.8478
    17.1728  18.0946  18.4635  18.5293  18.8192  19.5190  20.1727  20.3431
    21.4693  22.2537  22.2676  22.7921  24.1083  24.2749  25.0117  25.8964
    26.2629  26.6998  26.8101  26.9338  27.2100  27.5952  27.7086  27.8400
    28.4162  28.6629  31.1336  31.3740  31.4042  32.1283  32.1414  32.3771
    32.9788  33.3750  34.3738  34.8904  34.9315  34.9681

          k = 0.5198 0.0000 0.0000 (  5707 PWs)   bands (ev):

   -13.1484 -13.1035 -12.5455 -12.4947  -1.7751  -1.4223  -1.1835  -0.7878
     0.7577   0.8279   1.3167   1.4601   1.5426   2.0575   2.1730   2.9598
     5.1563   5.9317   7.5205   8.3894   9.6856  10.4968  11.5052  12.3375
    13.0024  13.1461  13.5399  13.5900  13.9627  14.3370  15.1961  15.8595
    17.2023  18.0650  18.4896  18.5579  18.7822  19.4695  20.1766  20.3544
    21.4200  22.1507  22.2706  22.8240  24.1741  24.3103  24.8895  25.9310
    26.2561  26.6390  26.6493  26.9370  27.3134  27.6762  27.7352  27.9054
    28.4623  28.6587  31.0813  31.2636  31.3649  32.1232  32.1420  32.1740
    32.8824  33.2642  34.2179  34.7119  34.8723  34.9502

          k = 0.5005 0.0000 0.0000 (  5703 PWs)   bands (ev):

   -13.1618 -13.1163 -12.5548 -12.5033  -1.7378  -1.3812  -1.1488  -0.7518
     0.7681   0.8379   1.2455   1.4685   1.5505   2.0266   2.1716   2.9678
     5.1223   5.9292   7.6057   8.4861   9.6799  10.4739  11.5111  12.3151
    12.9667  13.1266  13.5800  13.6073  13.9927  14.3528  15.1620  15.8740
    17.2458  18.0229  18.5233  18.5980  18.7302  19.4019  20.1844  20.3727
    21.3594  21.9987  22.2898  22.8698  24.2579  24.3517  24.7470  25.9753
    26.2123  26.4860  26.5956  26.9436  27.3984  27.7227  27.8028  27.9685
    28.5294  28.6510  30.9989  31.0721  31.3499  31.8483  32.1584  32.2269
    32.7407  33.0552  34.0522  34.4609  34.8373  34.8514

          k = 0.4813 0.0000 0.0000 (  5715 PWs)   bands (ev):

   -13.1787 -13.1324 -12.5666 -12.5142  -1.6905  -1.3289  -1.1047  -0.7058
     0.7812   0.8505   1.1622   1.4793   1.5606   1.9889   2.1639   2.9765
     5.0873   5.9182   7.7165   8.6048   9.6668  10.4461  11.5151  12.2890
    12.9257  13.1073  13.6291  13.6302  14.0289  14.3728  15.1234  15.8901
    17.3041  17.9678  18.5626  18.6498  18.6637  19.3180  20.1978  20.4005
    21.2926  21.8202  22.3089  22.9295  24.3524  24.3920  24.5973  26.0253
    26.1259  26.3303  26.5715  26.9544  27.4389  27.7307  27.9226  28.0175
    28.6081  28.6398  30.8335  30.8798  31.3305  31.5702  32.1984  32.2781
    32.5543  32.7746  33.9074  34.1703  34.6506  34.7783

          k = 0.4620 0.0000 0.0000 (  5717 PWs)   bands (ev):

   -13.1988 -13.1515 -12.5808 -12.5272  -1.6337  -1.2655  -1.0512  -0.6503
     0.7971   0.8657   1.0701   1.4922   1.5726   1.9456   2.1485   2.9853
     5.0537   5.8981   7.8510   8.7425   9.6420  10.4150  11.5152  12.2608
    12.8811  13.0922  13.6551  13.6891  14.0698  14.3965  15.0861  15.9063
    17.3769  17.8993  18.5831  18.6056  18.7135  19.2196  20.2186  20.4399
    21.2242  21.6229  22.3260  23.0022  24.4230  24.4498  24.4501  26.0108
    26.0754  26.1903  26.5462  26.9702  27.4446  27.7042  28.0457  28.0733
    28.6274  28.6828  30.5554  30.7186  31.2903  31.3111  32.2658  32.3162
    32.3339  32.4610  33.8039  33.8474  34.4601  34.6929

          k = 0.4428 0.0000 0.0000 (  5727 PWs)   bands (ev):

   -13.2218 -13.1735 -12.5971 -12.5422  -1.5680  -1.1916  -0.9886  -0.5856
     0.8156   0.8835   0.9721   1.5071   1.5866   1.8979   2.1247   2.9933
     5.0224   5.8699   8.0062   8.8969   9.6011  10.3819  11.5095  12.2325
    12.8341  13.0857  13.6848  13.7554  14.1139  14.4235  15.0577  15.9214
    17.4631  17.8172  18.4895  18.6505  18.7894  19.1094  20.2482  20.4934
    21.1575  21.4140  22.3390  23.0861  24.3115  24.4393  24.5390  25.8790
    26.0731  26.1177  26.5006  26.9922  27.4326  27.6474  28.0510  28.2283
    28.6189  28.7365  30.2479  30.5141  30.9987  31.2976  32.1005  32.1440
    32.3290  32.3597  33.5167  33.7498  34.2734  34.5866

          k = 0.4235 0.0000 0.0000 (  5721 PWs)   bands (ev):

   -13.2474 -13.1979 -12.6154 -12.5591  -1.4941  -1.1076  -0.9173  -0.5121
     0.8365   0.8704   0.9035   1.5241   1.6024   1.8469   2.0928   3.0000
     4.9932   5.8354   8.1785   9.0656   9.5404  10.3473  11.4967  12.2066
    12.7840  13.0917  13.7177  13.8278  14.1601  14.4534  15.0467  15.9343
    17.5609  17.7218  18.3841  18.6963  18.8777  18.9899  20.2877  20.5625
    21.0953  21.1994  22.3455  23.1780  24.1859  24.4354  24.6111  25.7358
    25.9873  26.1391  26.4239  27.0246  27.4118  27.5609  28.0354  28.3706
    28.6208  28.7558  29.9213  30.2685  30.6851  31.2949  31.8354  31.8816
    32.3075  32.4742  33.2046  33.7446  34.0885  34.4717

          k = 0.4043 0.0000 0.0000 (  5727 PWs)   bands (ev):

   -13.2753 -13.2245 -12.6355 -12.5776  -1.4131  -1.0140  -0.8376  -0.4302
     0.7672   0.8596   0.9257   1.5427   1.6198   1.7935   2.0538   3.0050
     4.9651   5.7967   8.3638   9.2466   9.4576  10.3097  11.4772  12.1867
    12.7286  13.1130  13.7532  13.9052  14.2094  14.4855  15.0607  15.9446
    17.6138  17.6678  18.2686  18.7425  18.8642  18.9787  20.3378  20.6485
    20.9839  21.0394  22.3421  23.2735  24.0759  24.4092  24.6584  25.5819
    25.9381  26.1250  26.3125  27.0750  27.3862  27.4417  28.0039  28.4893
    28.6377  28.7334  29.5831  29.9871  30.3499  31.3043  31.5296  31.7025
    32.2458  32.6031  32.9307  33.7831  33.9093  34.3606

          k = 0.3850 0.0000 0.0000 (  5727 PWs)   bands (ev):

   -13.3050 -13.2528 -12.6571 -12.5974  -1.3259  -0.9113  -0.7499  -0.3406
     0.6640   0.8848   0.9499   1.5630   1.6387   1.7387   2.0089   3.0078
     4.9363   5.7560   8.5576   9.3529   9.4378  10.2659  11.4529  12.1772
    12.6648  13.1508  13.7906  13.9864  14.2653  14.5191  15.1045  15.9520
    17.4943  17.7809  18.1445  18.7353  18.7889  19.0928  20.3989  20.7519
    20.7717  20.9910  22.3244  23.3670  23.9831  24.3615  24.6795  25.4163
    25.9255  26.0648  26.1670  27.1498  27.2844  27.3574  27.9636  28.5762
    28.6649  28.6703  29.2404  29.6801  30.0043  31.2152  31.3242  31.5802
    32.1456  32.6996  32.7389  33.7433  33.8578  34.2617

          k = 0.3658 0.0000 0.0000 (  5741 PWs)   bands (ev):

   -13.3362 -13.2826 -12.6800 -12.6185  -1.2340  -0.8003  -0.6545  -0.2441
     0.5624   0.9118   0.9758   1.5846   1.6588   1.6836   1.9597   3.0083
     4.9048   5.7151   8.7548   9.2278   9.6367  10.2118  11.4277  12.1825
    12.5899  13.2056  13.8290  14.0704  14.3339  14.5533  15.1790  15.9567
    17.3648  17.8970  18.0136  18.6065  18.8361  19.2201  20.4710  20.5662
    20.8724  20.9511  22.2869  23.4512  23.9083  24.2944  24.6818  25.2368
    25.9417  25.9602  25.9913  27.0845  27.2481  27.3260  27.9216  28.5629
    28.6254  28.6664  28.9253  29.3695  29.6657  30.8904  31.3509  31.5178
    32.0150  32.4970  32.8749  33.5991  33.9599  34.1774

          k = 0.3465 0.0000 0.0000 (  5751 PWs)   bands (ev):

   -13.3685 -13.3134 -12.7038 -12.6405  -1.1387  -0.6817  -0.5520  -0.1413
     0.4642   0.9405   1.0033   1.6074   1.6290   1.6801   1.9078   3.0063
     4.8684   5.6761   8.9494   9.0850   9.8410  10.1436  11.4074  12.2066
    12.5035  13.2767  13.8675  14.1563  14.4209  14.5872  15.2822  15.9592
    17.2272  17.8775  18.0126  18.4809  18.8852  19.3609  20.3703  20.5542
    20.9189  21.0095  22.2242  23.5180  23.8514  24.2097  24.6778  25.0420
    25.7909  25.8232  25.9739  26.8442  27.2917  27.3589  27.8844  28.3954
    28.4428  28.6329  28.8100  29.1012  29.3611  30.5637  31.3799  31.5074
    31.8655  32.2987  33.0055  33.4802  34.0797  34.1062

          k = 0.3273 0.0000 0.0000 (  5751 PWs)   bands (ev):

   -13.4016 -13.3449 -12.7284 -12.6632  -1.0421  -0.5562  -0.4428  -0.0332
     0.3709   0.9704   1.0320   1.5760   1.6311   1.7022   1.8548   3.0017
     4.8251   5.6403   8.9267   9.1345  10.0469  10.0603  11.3989  12.2516
    12.4085  13.3629  13.9052  14.2435  14.5304  14.6198  15.4111  15.9601
    17.0837  17.7379  18.1234  18.3620  18.9379  19.5150  20.1866  20.6482
    20.8952  21.1607  22.1316  23.5600  23.8120  24.1068  24.6789  24.8307
    25.5717  25.6738  26.0033  26.5765  27.2539  27.4630  27.8572  28.0920
    28.1330  28.5971  28.7333  28.9309  29.1576  30.2483  31.4073  31.5365
    31.7087  32.0858  33.1265  33.3790  34.0451  34.2045

          k = 0.3080 0.0000 0.0000 (  5755 PWs)   bands (ev):

   -13.4349 -13.3768 -12.7535 -12.6863  -0.9464  -0.4246  -0.3280   0.0790
     0.2849   1.0014   1.0616   1.5256   1.6555   1.7249   1.8023   2.9944
     4.7732   5.6088   8.7566   9.2999   9.9586  10.2542  11.4094  12.3117
    12.3184  13.4626  13.9411  14.3313  14.6500  14.6639  15.5625  15.9602
    16.9363  17.5965  18.2251  18.2527  18.9961  19.6823  20.0171  20.7526
    20.8787  21.3243  22.0067  23.5736  23.7892  23.9816  24.6033  24.6882
    25.3394  25.5313  25.9909  26.3262  27.2116  27.5026  27.7628  27.7877
    27.8430  28.5189  28.5375  28.8608  29.0993  29.9574  31.4297  31.5544
    31.5935  31.8523  33.2355  33.2789  33.9912  34.3133

          k = 0.2888 0.0000 0.0000 (  5759 PWs)   bands (ev):

   -13.4682 -13.4086 -12.7787 -12.7095  -0.8546  -0.2880  -0.2094   0.1935
     0.2099   1.0330   1.0919   1.4791   1.6803   1.7480   1.7519   2.9845
     4.7118   5.5819   8.5770   9.4362   9.8432  10.4563  11.4423  12.2279
    12.4042  13.5742  13.9742  14.4194  14.6766  14.8207  15.7336  15.9601
    16.7874  17.4547  18.1561  18.3127  19.0614  19.8624  19.8636  20.8672
    20.8681  21.4973  21.8511  23.5604  23.7820  23.8279  24.3611  24.6950
    25.0986  25.4107  25.8359  26.2113  27.1633  27.2758  27.4017  27.6285
    27.8439  28.3317  28.4020  28.8568  29.0793  29.7049  31.4060  31.4474
    31.6029  31.6691  33.1699  33.3315  33.9425  34.3569

          k = 0.2695 0.0000 0.0000 (  5765 PWs)   bands (ev):

   -13.5011 -13.4400 -12.8037 -12.7327  -0.7701  -0.1473  -0.0938   0.1539
     0.3092   1.0650   1.1226   1.4382   1.7051   1.7053   1.7713   2.9718
     4.6403   5.5597   8.3903   9.5352   9.7154  10.6479  11.4933  12.1780
    12.5080  13.6956  14.0036  14.5078  14.6985  14.9991  15.9216  15.9609
    16.6388  17.3142  18.0750  18.3819  19.1342  19.7276  20.0546  20.8617
    20.9915  21.6695  21.6762  23.5265  23.6428  23.7889  24.1067  24.6677
    24.8533  25.3162  25.6032  26.2000  26.9354  27.0039  27.1072  27.4889
    27.8602  28.2102  28.2526  28.8955  29.0206  29.5104  31.2727  31.3499
    31.4530  31.7558  33.0623  33.4146  33.8977  34.2465

          k = 0.2503 0.0000 0.0000 (  5755 PWs)   bands (ev):

   -13.5333 -13.4707 -12.8284 -12.7555  -0.6978  -0.0135  -0.0030   0.1523
     0.4227   1.0972   1.1533   1.4050   1.6633   1.7302   1.7944   2.9565
     4.5590   5.5415   8.1990   9.5783   9.5944  10.8142  11.5537  12.1923
    12.6262  13.8249  14.0284  14.5964  14.7149  15.1964  15.9617  16.1259
    16.4927  17.1763  18.0116  18.4298  19.2119  19.6099  20.2580  20.8557
    21.1252  21.4746  21.8538  23.4292  23.4797  23.8083  23.8435  24.5566
    24.6065  25.2340  25.4320  26.1965  26.6139  26.6187  27.0405  27.2467
    27.8916  28.0794  28.1467  28.8983  28.9648  29.3858  31.1090  31.1508
    31.4500  31.8476  32.9778  33.4857  33.8560  33.9872

          k = 0.2310 0.0000 0.0000 (  5771 PWs)   bands (ev):

   -13.5644 -13.5005 -12.8524 -12.7777  -0.6430  -0.0031   0.1418   0.2444
     0.5306   1.1290   1.1837   1.3826   1.6277   1.7547   1.8171   2.9384
     4.4684   5.5266   8.0054   9.4355   9.6168  10.9239  11.6367  12.2881
    12.7553  13.9598  14.0480  14.6856  14.7252  15.4098  15.9649  16.3423
    16.3506  17.0427  17.9677  18.4549  19.2875  19.5111  20.4710  20.8424
    21.2677  21.2825  22.0248  23.1969  23.4250  23.5749  23.8385  24.3452
    24.3607  25.1303  25.3591  26.0977  26.3397  26.3540  26.9593  26.9597
    27.8912  27.9381  28.0544  28.7411  29.0555  29.3087  30.8990  31.0409
    31.4370  31.9374  32.9326  33.5462  33.6641  33.8171

          k = 0.2118 0.0000 0.0000 (  5763 PWs)   bands (ev):

   -13.5942 -13.5289 -12.8755 -12.7990  -0.6102  -0.0066   0.2873   0.3748
     0.6280   1.1601   1.2135   1.3754   1.5997   1.7785   1.8392   2.9178
     4.3693   5.5142   7.8118   9.2899   9.6104  10.9491  11.7773  12.4528
    12.8917  14.0621  14.0981  14.7292  14.7757  15.6362  15.9701  16.2144
    16.5691  16.9146  17.9442  18.4567  19.3493  19.4314  20.6914  20.8028
    21.1267  21.4186  22.1778  22.9576  23.3047  23.3649  23.8775  24.0847
    24.1181  24.9630  25.3408  25.7855  26.1814  26.3009  26.6682  26.8605
    27.7019  27.8870  27.9957  28.5787  29.1625  29.2504  30.7379  30.9424
    31.4136  32.0139  32.9302  33.3264  33.5972  33.7810

          k = 0.1925 0.0000 0.0000 (  5763 PWs)   bands (ev):

   -13.6223 -13.5558 -12.8975 -12.8193  -0.6000   0.0033   0.4309   0.5147
     0.7094   1.1901   1.2422   1.3883   1.5807   1.8013   1.8604   2.8945
     4.2628   5.5036   7.6205   9.1446   9.5838  10.9041  11.9776  12.6624
    13.0315  14.0706  14.2375  14.7271  14.8670  15.8719  15.9779  16.0853
    16.7933  16.8034  17.9415  18.4357  19.3702  19.3797  20.7200  20.9163
    21.0420  21.5771  22.2975  22.7247  23.0368  23.2905  23.8412  23.8801
    23.9239  24.7171  25.2890  25.4973  26.0749  26.3168  26.4192  26.7380
    27.5206  27.6488  28.0646  28.4096  29.1970  29.2808  30.6371  30.8544
    31.3801  32.0538  32.9650  33.0109  33.6403  33.7476

          k = 0.1733 0.0000 0.0000 (  5781 PWs)   bands (ev):

   -13.6485 -13.5808 -12.9181 -12.8383  -0.6085   0.0269   0.5694   0.6567
     0.7719   1.2187   1.2695   1.4250   1.5717   1.8229   1.8804   2.8687
     4.1500   5.4940   7.4338   9.0027   9.5444  10.8228  12.2147  12.8986
    13.1707  14.0738  14.3759  14.7195  14.9590  15.9648  15.9886  16.1120
    16.6799  17.0410  17.9586  18.3926  19.3263  19.3587  20.6325  21.0078
    21.1407  21.7424  22.3636  22.5131  22.7746  23.1791  23.6513  23.6786
    23.9727  24.4147  25.0428  25.4227  25.9081  26.3141  26.3486  26.5895
    27.3569  27.3668  28.1424  28.2239  29.1429  29.4060  30.5959  30.7761
    31.3370  32.0069  32.7726  33.0261  33.6761  33.7173

          k = 0.1540 0.0000 0.0000 (  5769 PWs)   bands (ev):

   -13.6725 -13.6039 -12.9370 -12.8559  -0.6289   0.0581   0.6937   0.7969
     0.8222   1.2456   1.2951   1.4843   1.5744   1.8430   1.8991   2.8406
     4.0323   5.4853   7.2543   8.8668   9.4982  10.7280  12.4708  13.1493
    13.3054  14.0722  14.5114  14.7075  15.0509  15.8540  16.0028  16.3498
    16.5756  17.2765  17.9941  18.3302  19.2780  19.2981  20.5849  20.9854
    21.3538  21.9136  22.3373  22.3605  22.5218  23.0376  23.4320  23.6182
    24.0230  24.0833  24.7579  25.4133  25.6587  26.3443  26.3897  26.4178
    27.0673  27.2148  28.0240  28.2267  29.0874  29.5342  30.6023  30.7071
    31.2852  31.8275  32.6559  33.1018  33.6864  33.7096

          k = 0.1348 0.0000 0.0000 (  5777 PWs)   bands (ev):

   -13.6943 -13.6247 -12.9542 -12.8718  -0.6551   0.0912   0.7720   0.8940
     0.9307   1.2702   1.3186   1.5597   1.5908   1.8613   1.9161   2.8104
     3.9113   5.4770   7.0847   8.7395   9.4497  10.6318  12.7350  13.4058
    13.4318  14.0669  14.6424  14.6925  15.1401  15.7539  16.0210  16.4813
    16.5748  17.5015  18.0454  18.2539  19.1549  19.2830  20.5744  20.9583
    21.5320  22.0892  22.2179  22.2822  22.2964  22.9157  23.2256  23.6110
    23.7414  24.0703  24.5136  25.3948  25.4052  26.2312  26.4053  26.4381
    26.7804  27.0928  27.8227  28.3149  29.0319  29.6609  30.6397  30.6472
    31.2265  31.5617  32.6077  33.1815  33.6625  33.6991

          k = 0.1155 0.0000 0.0000 (  5769 PWs)   bands (ev):

   -13.7135 -13.6430 -12.9695 -12.8859  -0.6828   0.1222   0.7957   1.0001
     1.0528   1.2924   1.3398   1.6185   1.6473   1.8777   1.9312   2.7789
     3.7891   5.4693   6.9279   8.6233   9.4023  10.5410  12.9995  13.5461
    13.6607  14.0589  14.6759  14.7676  15.2231  15.6654  16.0436  16.3978
    16.7696  17.7044  18.1090  18.1728  19.0285  19.2781  20.5595  20.9397
    21.6175  22.0596  22.1609  22.2555  22.2676  22.8302  23.0350  23.4002
    23.5992  24.1099  24.3357  25.1383  25.3955  26.0415  26.3594  26.4896
    26.6187  26.9875  27.6380  28.4041  28.9780  29.7813  30.5960  30.6932
    31.1630  31.2776  32.5514  33.2571  33.5706  33.6405

          k = 0.0963 0.0000 0.0000 (  5761 PWs)   bands (ev):

   -13.7300 -13.6589 -12.9826 -12.8981  -0.7091   0.1488   0.7997   1.1082
     1.1571   1.3117   1.3582   1.6662   1.7319   1.8920   1.9444   2.7466
     3.6686   5.4621   6.7871   8.5204   9.3584  10.4597  13.2567  13.6457
    13.9065  14.0494  14.6590  14.8854  15.2958  15.5892  16.0703  16.3260
    16.9082  17.8744  18.0944  18.1806  18.9480  19.2800  20.4900  20.9636
    21.5627  21.8590  22.1630  22.3138  22.4454  22.7752  22.8637  23.0687
    23.5491  24.1365  24.2340  24.8963  25.3890  25.8609  26.1313  26.5419
    26.6424  26.8961  27.4911  28.4909  28.9264  29.8894  30.5532  30.7515
    31.0115  31.0979  32.4571  33.3240  33.5142  33.6215

          k = 0.0770 0.0000 0.0000 (  5745 PWs)   bands (ev):

   -13.7437 -13.6720 -12.9935 -12.9082  -0.7322   0.1703   0.7972   1.2056
     1.2394   1.3280   1.3737   1.7283   1.8115   1.9039   1.9554   2.7152
     3.5537   5.4558   6.6656   8.4331   9.3201  10.3905  13.4980  13.7283
    14.0397  14.1345  14.6433  14.9935  15.3541  15.5260  16.0999  16.2663
    16.9663  17.9781  18.0519  18.2548  18.9524  19.2850  20.3622  21.0330
    21.4316  21.6848  22.2073  22.4049  22.6187  22.7156  22.7555  22.7674
    23.4695  24.1447  24.1849  24.6742  25.3901  25.7010  25.8967  26.5909
    26.6659  26.8179  27.4021  28.5712  28.8783  29.9764  30.5188  30.7849
    30.8076  31.0349  32.3354  33.3805  33.5121  33.6058

          k = 0.0578 0.0000 0.0000 (  5741 PWs)   bands (ev):

   -13.7545 -13.6823 -13.0022 -12.9162  -0.7511   0.1865   0.7928   1.2847
     1.3009   1.3409   1.3860   1.7985   1.8802   1.9133   1.9642   2.6863
     3.4499   5.4504   6.5666   8.3631   9.2889  10.3351  13.7120  13.7929
    14.0307  14.3341  14.6298  15.0883  15.3955  15.4763  16.1296  16.2194
    16.9481  17.8945  18.1791  18.3251  19.0359  19.2902  20.2043  21.1275
    21.2945  21.5422  22.2639  22.4364  22.4809  22.5941  22.7807  22.8368
    23.3898  24.1314  24.1516  24.4794  25.4001  25.5716  25.6969  26.6330
    26.6522  26.7537  27.3750  28.6407  28.8354  30.0301  30.4923  30.6191
    30.8541  30.9784  32.2119  33.4272  33.5374  33.5934

          k = 0.0385 0.0000 0.0000 (  5733 PWs)   bands (ev):

   -13.7622 -13.6897 -13.0084 -12.9220  -0.7650   0.1977   0.7886   1.3317
     1.3502   1.3545   1.3949   1.8644   1.9201   1.9334   1.9705   2.6625
     3.3649   5.4464   6.4933   8.3119   9.2658  10.2948  13.8390  13.8843
    14.0236  14.4923  14.6196  15.1648  15.4200  15.4406  16.1554  16.1856
    16.8903  17.7967  18.3155  18.3839  19.1556  19.2936  20.0428  21.1828
    21.2317  21.4362  22.1784  22.3896  22.4186  22.5038  22.9195  22.9474
    23.3282  24.1007  24.1168  24.3226  25.4151  25.4792  25.5453  26.6164
    26.6659  26.7055  27.3867  28.6949  28.8006  30.0417  30.4736  30.5253
    30.8897  30.9334  32.1083  33.4645  33.5692  33.5844

          k = 0.0193 0.0000 0.0000 (  5745 PWs)   bands (ev):

   -13.7669 -13.6942 -13.0121 -12.9254  -0.7735   0.2042   0.7856   1.3542
     1.3559   1.3924   1.4003   1.9118   1.9242   1.9672   1.9743   2.6466
     3.3080   5.4438   6.4482   8.2807   9.2516  10.2704  13.8666  13.9979
    14.0191  14.5952  14.6131  15.2164  15.4190  15.4306  16.1652  16.1731
    16.8353  17.7249  18.4185  18.4234  19.2663  19.2951  19.9074  21.1114
    21.3278  21.3707  22.0015  22.3947  22.4336  22.4479  23.0177  23.0379
    23.2912  24.0670  24.0850  24.2184  25.4251  25.4284  25.4507  26.5850
    26.6753  26.6864  27.4067  28.7295  28.7775  30.0263  30.4625  30.4909
    30.9042  30.9117  32.0401  33.4904  33.5790  33.5936

          k = 0.0000 0.0000 0.0000 (  5737 PWs)   bands (ev):

   -13.7685 -13.6957 -13.0134 -12.9266  -0.7763   0.2063   0.7846   1.3578
     1.3613   1.4022   1.4055   1.9256   1.9291   1.9756   1.9790   2.6410
     3.2877   5.4430   6.4329   8.2702   9.2468  10.2622  13.8758  14.0175
    14.0378  14.6109  14.6311  15.2350  15.4118  15.4330  16.1584  16.1794
    16.8133  17.6986  18.4374  18.4573  19.2954  19.3160  19.8488  21.0869
    21.3486  21.3736  21.9249  22.3851  22.4290  22.4534  23.0540  23.0723
    23.2790  24.0519  24.0715  24.1815  25.4074  25.4184  25.4336  26.5729
    26.6651  26.6935  27.4155  28.7414  28.7693  30.0163  30.4588  30.4842
    30.8940  30.9192  32.0162  33.5001  33.5772  33.6027

     Writing all to output data dir ./work/Al2O2.save/
 
     init_run     :      4.58s CPU      4.65s WALL (       1 calls)
     electrons    :    148.02s CPU    190.97s WALL (       1 calls)

     Called by init_run:
     wfcinit      :      0.00s CPU      0.00s WALL (       1 calls)
     potinit      :      4.49s CPU      4.54s WALL (       1 calls)
     hinit0       :      0.06s CPU      0.07s WALL (       1 calls)

     Called by electrons:
     c_bands      :    148.02s CPU    190.97s WALL (       1 calls)
     v_of_rho     :      4.43s CPU      4.46s WALL (       1 calls)
     newd         :      0.01s CPU      0.02s WALL (       1 calls)
     PAW_pot      :      0.05s CPU      0.08s WALL (       1 calls)
     vdW_kernel   :      4.42s CPU      4.42s WALL (       1 calls)

     Called by c_bands:
     init_us_2    :      0.02s CPU      0.03s WALL (      91 calls)
     init_us_2:cp :      0.02s CPU      0.03s WALL (      91 calls)
     cegterg      :    145.08s CPU    186.74s WALL (     338 calls)

     Called by *egterg:
     cdiaghg      :     29.37s CPU     30.21s WALL (    5824 calls)
     h_psi        :     74.73s CPU    113.83s WALL (    6162 calls)
     s_psi        :      4.24s CPU      4.68s WALL (    6162 calls)
     g_psi        :      0.18s CPU      0.18s WALL (    5733 calls)

     Called by h_psi:
     h_psi:calbec :      5.53s CPU      7.72s WALL (    6162 calls)
     vloc_psi     :     63.68s CPU     99.68s WALL (    6162 calls)
     add_vuspsi   :      5.15s CPU      6.05s WALL (    6162 calls)

     General routines
     calbec       :      5.52s CPU      7.71s WALL (    6162 calls)
     fft          :      0.01s CPU      0.02s WALL (      62 calls)
     fftw         :     61.48s CPU     96.40s WALL (  428274 calls)
     davcio       :      0.04s CPU      0.05s WALL (     182 calls)
 
     Parallel routines
 
     PWSCF        :   2m33.60s CPU   3m17.62s WALL

 
   This run was terminated on:  14:14:26  18Jun2023            

=------------------------------------------------------------------------------=
   JOB DONE.
=------------------------------------------------------------------------------=
