
     Program PWSCF v.7.0 starts on 18Jun2023 at 13:18:17 

     This program is part of the open-source Quantum ESPRESSO suite
     for quantum simulation of materials; please cite
         "P. Giannozzi et al., J. Phys.:Condens. Matter 21 395502 (2009);
         "P. Giannozzi et al., J. Phys.:Condens. Matter 29 465901 (2017);
         "P. Giannozzi et al., J. Chem. Phys. 152 154105 (2020);
          URL http://www.quantum-espresso.org", 
     in publications or presentations arising from this work. More details at
     http://www.quantum-espresso.org/quote

     Parallel version (MPI), running on    16 processors

     MPI processes distributed on     1 nodes
     R & G space division:  proc/nbgrp/npool/nimage =      16
     3606 MiB available memory on the printing compute node when the environment starts
 
     Waiting for input...
     Reading input from standard input

     Current dimensions of program PWSCF are:
     Max number of different atomic species (ntypx) = 10
     Max number of k-points (npk) =  40000
     Max angular momentum in pseudopotentials (lmaxx) =  4
     Message from routine volume:
     axis vectors are left-handed

     Atomic positions and unit cell read from directory:
     ./work/Al2S2.save/
     Atomic positions from file used, from input discarded
 
     Message from routine volume:
     axis vectors are left-handed
     file Al.pbe-n-kjpaw_psl.1.0.0.UPF: wavefunction(s)  3S 3P renormalized
     file S.pbe-n-kjpaw_psl.1.0.0.UPF: wavefunction(s)  3S 3P renormalized

     IMPORTANT: XC functional enforced from input :
     Exchange-correlation= VDW-DF2-B86R
                           (   1   4  26   0   2   0   0)
     Any further DFT definition will be discarded
     Please, verify this is what you really want

     Message from routine setup:
     using ibrav=0 with symmetry is DISCOURAGED, use correct ibrav instead

     Subspace diagonalization in iterative solution of the eigenvalue problem:
     a serial algorithm will be used

 
     Parallelization info
     --------------------
     sticks:   dense  smooth     PW     G-vecs:    dense   smooth      PW
     Min          39      39     11                 3969     3969     627
     Max          40      40     12                 3977     3977     642
     Sum         625     625    187                63569    63569   10233
 
     Using Slab Decomposition
 


     bravais-lattice index     =            0
     lattice parameter (alat)  =       6.1344  a.u.
     unit-cell volume          =    1013.9290 (a.u.)^3
     number of atoms/cell      =            8
     number of atomic types    =            2
     number of electrons       =        36.00
     number of Kohn-Sham states=           70
     kinetic-energy cutoff     =      60.0000  Ry
     charge density cutoff     =     240.0000  Ry
     Exchange-correlation= VDW-DF2-B86R
                           (   1   4  26   0   2   0   0)

     celldm(1)=   6.134387  celldm(2)=   0.000000  celldm(3)=   0.000000
     celldm(4)=   0.000000  celldm(5)=   0.000000  celldm(6)=   0.000000

     crystal axes: (cart. coord. in units of alat)
               a(1) = (   0.865734   0.500504   0.000000 )  
               a(2) = (   0.865734  -0.500504   0.000000 )  
               a(3) = (   0.000000   0.000000   5.068413 )  

     reciprocal axes: (cart. coord. in units 2 pi/alat)
               b(1) = (  0.577544  0.998993  0.000000 )  
               b(2) = (  0.577544 -0.998993  0.000000 )  
               b(3) = (  0.000000  0.000000  0.197300 )  


     PseudoPot. # 1 for Al read from file:
     /home/mainadmin/research/danu/pseudo/Al.pbe-n-kjpaw_psl.1.0.0.UPF
     MD5 check sum: 502b6b27b9c6270cab5dd1084b96fa6d
     Pseudo is Projector augmented-wave + core cor, Zval =  3.0
     Generated using &quot;atomic&quot; code by A. Dal Corso  v.6.3
     Shape of augmentation charge: PSQ
     Using radial grid of 1135 points,  6 beta functions with: 
                l(1) =   0
                l(2) =   0
                l(3) =   1
                l(4) =   1
                l(5) =   2
                l(6) =   2
     Q(r) pseudized with 0 coefficients 


     PseudoPot. # 2 for S  read from file:
     /home/mainadmin/research/danu/pseudo/S.pbe-n-kjpaw_psl.1.0.0.UPF
     MD5 check sum: fb45dfebcf3e72a4e1bd4a866ec2e262
     Pseudo is Projector augmented-wave + core cor, Zval =  6.0
     Generated using &quot;atomic&quot; code by A. Dal Corso  v.6.3
     Shape of augmentation charge: PSQ
     Using radial grid of 1151 points,  6 beta functions with: 
                l(1) =   0
                l(2) =   0
                l(3) =   1
                l(4) =   1
                l(5) =   2
                l(6) =   2
     Q(r) pseudized with 0 coefficients 


     atomic species   valence    mass     pseudopotential
        Al             3.00    26.98100     Al( 1.00)
        S              6.00    32.06500     S ( 1.00)

      2 Sym. Ops. (no inversion) found



   Cartesian axes

     site n.     atom                  positions (alat units)
         1           S   tau(   1) = (   0.5771561   0.0000000   0.0000000  )
         2           Al  tau(   2) = (   0.0000000   0.0000000   0.3769798  )
         3           Al  tau(   3) = (   0.0000000   0.0000000   1.1783078  )
         4           S   tau(   4) = (   0.5771561   0.0000000   1.5552638  )
         5           S   tau(   5) = (   1.1543123   0.0000000   2.5344855  )
         6           Al  tau(   6) = (   0.5771561   0.0000000   2.9115791  )
         7           Al  tau(   7) = (   0.5771561   0.0000000   3.7126540  )
         8           S   tau(   8) = (   1.1543123   0.0000000   4.0897110  )

     number of k points=    91
                       cart. coord. in units 2pi/alat
        k(    1) = (   0.0000000   0.0000000   0.0000000), wk =   0.0219780
        k(    2) = (   0.0192515   0.0110848   0.0000000), wk =   0.0219780
        k(    3) = (   0.0385030   0.0221697   0.0000000), wk =   0.0219780
        k(    4) = (   0.0577544   0.0332545   0.0000000), wk =   0.0219780
        k(    5) = (   0.0770059   0.0443393   0.0000000), wk =   0.0219780
        k(    6) = (   0.0962574   0.0554241   0.0000000), wk =   0.0219780
        k(    7) = (   0.1155089   0.0665090   0.0000000), wk =   0.0219780
        k(    8) = (   0.1347604   0.0775938   0.0000000), wk =   0.0219780
        k(    9) = (   0.1540119   0.0886786   0.0000000), wk =   0.0219780
        k(   10) = (   0.1732633   0.0997634   0.0000000), wk =   0.0219780
        k(   11) = (   0.1925148   0.1108483   0.0000000), wk =   0.0219780
        k(   12) = (   0.2117663   0.1219331   0.0000000), wk =   0.0219780
        k(   13) = (   0.2310178   0.1330179   0.0000000), wk =   0.0219780
        k(   14) = (   0.2502693   0.1441027   0.0000000), wk =   0.0219780
        k(   15) = (   0.2695208   0.1551876   0.0000000), wk =   0.0219780
        k(   16) = (   0.2887722   0.1662724   0.0000000), wk =   0.0219780
        k(   17) = (   0.3080237   0.1773572   0.0000000), wk =   0.0219780
        k(   18) = (   0.3272752   0.1884420   0.0000000), wk =   0.0219780
        k(   19) = (   0.3465267   0.1995269   0.0000000), wk =   0.0219780
        k(   20) = (   0.3657782   0.2106117   0.0000000), wk =   0.0219780
        k(   21) = (   0.3850296   0.2216965   0.0000000), wk =   0.0219780
        k(   22) = (   0.4042811   0.2327813   0.0000000), wk =   0.0219780
        k(   23) = (   0.4235326   0.2438662   0.0000000), wk =   0.0219780
        k(   24) = (   0.4427841   0.2549510   0.0000000), wk =   0.0219780
        k(   25) = (   0.4620356   0.2660358   0.0000000), wk =   0.0219780
        k(   26) = (   0.4812871   0.2771206   0.0000000), wk =   0.0219780
        k(   27) = (   0.5005385   0.2882055   0.0000000), wk =   0.0219780
        k(   28) = (   0.5197900   0.2992903   0.0000000), wk =   0.0219780
        k(   29) = (   0.5390415   0.3103751   0.0000000), wk =   0.0219780
        k(   30) = (   0.5582930   0.3214599   0.0000000), wk =   0.0219780
        k(   31) = (   0.5775445   0.3325448   0.0000000), wk =   0.0219780
        k(   32) = (   0.5775445   0.3214599   0.0000000), wk =   0.0219780
        k(   33) = (   0.5775445   0.3103751   0.0000000), wk =   0.0219780
        k(   34) = (   0.5775445   0.2992903   0.0000000), wk =   0.0219780
        k(   35) = (   0.5775445   0.2882055   0.0000000), wk =   0.0219780
        k(   36) = (   0.5775445   0.2771206   0.0000000), wk =   0.0219780
        k(   37) = (   0.5775445   0.2660358   0.0000000), wk =   0.0219780
        k(   38) = (   0.5775445   0.2549510   0.0000000), wk =   0.0219780
        k(   39) = (   0.5775445   0.2438662   0.0000000), wk =   0.0219780
        k(   40) = (   0.5775445   0.2327813   0.0000000), wk =   0.0219780
        k(   41) = (   0.5775445   0.2216965   0.0000000), wk =   0.0219780
        k(   42) = (   0.5775445   0.2106117   0.0000000), wk =   0.0219780
        k(   43) = (   0.5775445   0.1995269   0.0000000), wk =   0.0219780
        k(   44) = (   0.5775445   0.1884420   0.0000000), wk =   0.0219780
        k(   45) = (   0.5775445   0.1773572   0.0000000), wk =   0.0219780
        k(   46) = (   0.5775445   0.1662724   0.0000000), wk =   0.0219780
        k(   47) = (   0.5775445   0.1551876   0.0000000), wk =   0.0219780
        k(   48) = (   0.5775445   0.1441027   0.0000000), wk =   0.0219780
        k(   49) = (   0.5775445   0.1330179   0.0000000), wk =   0.0219780
        k(   50) = (   0.5775445   0.1219331   0.0000000), wk =   0.0219780
        k(   51) = (   0.5775445   0.1108483   0.0000000), wk =   0.0219780
        k(   52) = (   0.5775445   0.0997634   0.0000000), wk =   0.0219780
        k(   53) = (   0.5775445   0.0886786   0.0000000), wk =   0.0219780
        k(   54) = (   0.5775445   0.0775938   0.0000000), wk =   0.0219780
        k(   55) = (   0.5775445   0.0665090   0.0000000), wk =   0.0219780
        k(   56) = (   0.5775445   0.0554241   0.0000000), wk =   0.0219780
        k(   57) = (   0.5775445   0.0443393   0.0000000), wk =   0.0219780
        k(   58) = (   0.5775445   0.0332545   0.0000000), wk =   0.0219780
        k(   59) = (   0.5775445   0.0221697   0.0000000), wk =   0.0219780
        k(   60) = (   0.5775445   0.0110848   0.0000000), wk =   0.0219780
        k(   61) = (   0.5775445   0.0000000   0.0000000), wk =   0.0219780
        k(   62) = (   0.5582930   0.0000000   0.0000000), wk =   0.0219780
        k(   63) = (   0.5390415   0.0000000   0.0000000), wk =   0.0219780
        k(   64) = (   0.5197900   0.0000000   0.0000000), wk =   0.0219780
        k(   65) = (   0.5005385   0.0000000   0.0000000), wk =   0.0219780
        k(   66) = (   0.4812871   0.0000000   0.0000000), wk =   0.0219780
        k(   67) = (   0.4620356   0.0000000   0.0000000), wk =   0.0219780
        k(   68) = (   0.4427841   0.0000000   0.0000000), wk =   0.0219780
        k(   69) = (   0.4235326   0.0000000   0.0000000), wk =   0.0219780
        k(   70) = (   0.4042811   0.0000000   0.0000000), wk =   0.0219780
        k(   71) = (   0.3850296   0.0000000   0.0000000), wk =   0.0219780
        k(   72) = (   0.3657782   0.0000000   0.0000000), wk =   0.0219780
        k(   73) = (   0.3465267   0.0000000   0.0000000), wk =   0.0219780
        k(   74) = (   0.3272752   0.0000000   0.0000000), wk =   0.0219780
        k(   75) = (   0.3080237   0.0000000   0.0000000), wk =   0.0219780
        k(   76) = (   0.2887722   0.0000000   0.0000000), wk =   0.0219780
        k(   77) = (   0.2695208   0.0000000   0.0000000), wk =   0.0219780
        k(   78) = (   0.2502693   0.0000000   0.0000000), wk =   0.0219780
        k(   79) = (   0.2310178   0.0000000   0.0000000), wk =   0.0219780
        k(   80) = (   0.2117663   0.0000000   0.0000000), wk =   0.0219780
        k(   81) = (   0.1925148   0.0000000   0.0000000), wk =   0.0219780
        k(   82) = (   0.1732633   0.0000000   0.0000000), wk =   0.0219780
        k(   83) = (   0.1540119   0.0000000   0.0000000), wk =   0.0219780
        k(   84) = (   0.1347604   0.0000000   0.0000000), wk =   0.0219780
        k(   85) = (   0.1155089   0.0000000   0.0000000), wk =   0.0219780
        k(   86) = (   0.0962574   0.0000000   0.0000000), wk =   0.0219780
        k(   87) = (   0.0770059   0.0000000   0.0000000), wk =   0.0219780
        k(   88) = (   0.0577544   0.0000000   0.0000000), wk =   0.0219780
        k(   89) = (   0.0385030   0.0000000   0.0000000), wk =   0.0219780
        k(   90) = (   0.0192515   0.0000000   0.0000000), wk =   0.0219780
        k(   91) = (   0.0000000   0.0000000   0.0000000), wk =   0.0219780

     Dense  grid:    63569 G-vectors     FFT dimensions: (  32,  32, 160)

     Estimated max dynamical RAM per process >      17.00 MB

     Estimated total dynamical RAM >     271.95 MB

     The potential is recalculated from file :
     ./work/Al2S2.save/charge-density



     %%%%%%%%%%%%%%%%%%%%%%%%%%%%%%%%%%%%%%%%%%%%%%%%%%%%%%%%%%%%%%%%%%%%%%%%
     %                                                                      %
     % You are using vdW-DF, which was implemented by the Thonhauser group. %
     % Please cite the following two papers that made this development      %
     % possible and the two reviews that describe the various versions:     %
     %                                                                      %
     %   T. Thonhauser et al., PRL 115, 136402 (2015).                      %
     %   T. Thonhauser et al., PRB 76, 125112 (2007).                       %
     %   K. Berland et al., Rep. Prog. Phys. 78, 066501 (2015).             %
     %   D.C. Langreth et al., J. Phys.: Condens. Matter 21, 084203 (2009). %
     %                                                                      %
     %                                                                      %
     % If you are calculating the stress with vdW-DF, please also cite:     %
     %                                                                      %
     %   R. Sabatini et al., J. Phys.: Condens. Matter 24, 424209 (2012).   %
     %                                                                      %
     %%%%%%%%%%%%%%%%%%%%%%%%%%%%%%%%%%%%%%%%%%%%%%%%%%%%%%%%%%%%%%%%%%%%%%%%


     Starting wfcs are   32 randomized atomic wfcs +   38 random wfcs
     Checking if some PAW data can be deallocated... 

     Band Structure Calculation
     Davidson diagonalization with overlap
     c_bands:  1 eigenvalues not converged
     c_bands:  1 eigenvalues not converged
     c_bands:  1 eigenvalues not converged
     c_bands:  1 eigenvalues not converged
     c_bands:  1 eigenvalues not converged
     c_bands:  1 eigenvalues not converged

     ethr =  2.78E-11,  avg # of iterations = 70.0

     total cpu time spent up to now is      262.6 secs

     End of band structure calculation

          k = 0.0000 0.0000 0.0000 (  7959 PWs)   bands (ev):

    -8.5765  -8.4812  -8.3881  -8.2800  -1.1841  -0.6964   0.5296   1.7956
     3.5377   4.9666   5.3484   5.3585   5.3762   5.3862   5.4104   5.4205
     5.4392   5.4492   8.9803  10.4749  11.7345  11.8940  11.9497  12.1068
    12.6773  12.6996  12.7228  12.7451  13.2070  13.2299  13.2725  13.2955
    13.7781  15.6055  15.6259  15.7809  15.7827  15.8032  16.2772  16.9310
    16.9481  17.0619  17.3402  17.3574  17.4676  17.4854  17.6674  17.6856
    19.6749  19.7007  19.8743  19.9572  20.5009  20.7711  21.1738  21.1935
    21.4885  21.5074  21.8211  22.1470  22.1671  22.4722  22.7756  22.7947
    23.6669  23.9534  25.0604  25.7140  25.7332  25.9312

          k = 0.0193 0.0111 0.0000 (  7965 PWs)   bands (ev):

    -8.5716  -8.4763  -8.3833  -8.2752  -1.1783  -0.6909   0.5348   1.7996
     3.5406   4.9678   5.3226   5.3436   5.3495   5.3715   5.3861   5.4066
     5.4115   5.4355   8.9904  10.4778  11.7633  11.9227  11.9751  12.1325
    12.6584  12.6884  12.7015  12.7423  13.2030  13.2325  13.2712  13.2999
    13.7973  15.5336  15.5769  15.7380  15.7761  15.8044  16.2046  16.8983
    16.9202  17.0134  17.3413  17.4158  17.4932  17.5090  17.7069  17.7781
    19.7129  19.7234  19.9128  20.0021  20.5207  20.8085  21.1557  21.1917
    21.4953  21.5225  21.8713  22.0683  22.1305  22.5521  22.7262  22.7993
    23.6865  24.0625  25.0206  25.6684  25.6992  25.9746

          k = 0.0385 0.0222 0.0000 (  7961 PWs)   bands (ev):

    -8.5568  -8.4618  -8.3687  -8.2610  -1.1608  -0.6746   0.5505   1.8115
     3.5488   4.9701   5.2304   5.2538   5.2908   5.3066   5.3242   5.3518
     5.3834   5.4131   9.0192  10.4849  11.8442  12.0027  12.0477  12.2053
    12.5676  12.5742  12.7298  12.7746  13.1576  13.2259  13.2861  13.3496
    13.8413  15.3465  15.4490  15.6412  15.7258  15.8075  16.0201  16.7850
    16.8761  16.9047  17.3269  17.5574  17.5655  17.5868  17.7934  18.0131
    19.7860  19.8226  20.0258  20.1272  20.5768  20.9104  21.0893  21.2105
    21.4960  21.5892  21.9026  22.0092  22.0604  22.6093  22.6913  22.8572
    23.7409  24.3239  24.8915  25.5352  25.6548  26.0888

          k = 0.0578 0.0333 0.0000 (  7977 PWs)   bands (ev):

    -8.5321  -8.4376  -8.3444  -8.2373  -1.1317  -0.6475   0.5765   1.8309
     3.5614   4.9618   5.0962   5.1020   5.1466   5.1489   5.2838   5.3132
     5.3452   5.3761   9.0637  10.4928  11.9602  12.1145  12.1566  12.3123
    12.4057  12.4330  12.7851  12.8285  13.0850  13.1604  13.3774  13.4406
    13.8839  15.1121  15.2593  15.5185  15.6254  15.7770  15.8106  16.6209
    16.7857  16.8158  17.2897  17.6536  17.7214  17.7240  17.9016  18.3256
    19.8743  19.9899  20.2049  20.3016  20.6587  21.0215  21.0466  21.2159
    21.5189  21.6892  21.7499  21.9664  22.2166  22.5428  22.7927  22.9890
    23.8168  24.6510  24.6793  25.3456  25.6539  26.2264

          k = 0.0770 0.0443 0.0000 (  7983 PWs)   bands (ev):

    -8.4978  -8.4039  -8.3106  -8.2043  -1.0910  -0.6099   0.6128   1.8576
     3.5759   4.8469   4.9046   4.9377   4.9647   5.0260   5.2294   5.2604
     5.2913   5.3238   9.1205  10.4975  12.0672  12.1509  12.2766  12.2838
    12.3101  12.4336  12.8563  12.8915  12.9976  13.0818  13.5159  13.5730
    13.9089  14.8648  15.0715  15.3782  15.4841  15.5122  15.8166  16.4296
    16.6813  16.7349  17.2258  17.7327  17.8891  17.8904  18.0267  18.6801
    19.9670  20.1867  20.4322  20.4602  20.7548  20.9889  21.1792  21.2105
    21.5654  21.6620  21.8149  21.9189  22.4799  22.5503  22.8580  23.2012
    23.8871  24.4267  24.9973  25.1449  25.6928  26.1525

          k = 0.0963 0.0554 0.0000 (  7983 PWs)   bands (ev):

    -8.4538  -8.3608  -8.2675  -8.1622  -1.0390  -0.5619   0.6593   1.8908
     3.5875   4.6253   4.6726   4.6919   4.7554   5.0288   5.1597   5.1921
     5.2216   5.2561   9.1866  10.4959  11.9472  11.9957  12.2968  12.4057
    12.4099  12.5419  12.9118  12.9181  12.9305  13.0091  13.7033  13.7388
    13.9296  14.6334  14.9142  15.2488  15.2558  15.3390  15.8219  16.2304
    16.5978  16.6321  17.1356  17.7914  18.0271  18.0480  18.2015  19.0535
    20.0407  20.3547  20.5058  20.6631  20.8778  21.0489  21.2436  21.3104
    21.6200  21.6605  21.9555  21.9716  22.6357  22.7804  22.9442  23.4651
    23.8970  24.1917  24.9909  25.3303  25.7525  26.0685

          k = 0.1155 0.0665 0.0000 (  7989 PWs)   bands (ev):

    -8.4005  -8.3086  -8.2151  -8.1111  -0.9757  -0.5040   0.7156   1.9294
     3.5857   4.3696   4.4164   4.4198   4.5405   5.0347   5.0795   5.1080
     5.1373   5.1725   9.2600  10.4861  11.7179  11.7892  12.4109  12.4889
    12.5211  12.5985  12.8594  12.8763  12.9423  12.9768  13.8975  13.9335
    13.9847  14.4307  14.7989  15.0553  15.1256  15.2825  15.8276  16.0410
    16.5103  16.5312  17.0232  17.8232  18.1112  18.1955  18.4220  19.4203
    20.0807  20.4328  20.4544  20.8072  21.0218  21.2534  21.4101  21.4812
    21.6715  21.6882  22.0961  22.1140  22.7750  23.0732  23.1302  23.7661
    23.8094  24.0240  24.9458  25.5954  25.8151  26.0726

          k = 0.1348 0.0776 0.0000 (  7989 PWs)   bands (ev):

    -8.3380  -8.2474  -8.1538  -8.0513  -0.9015  -0.4367   0.7817   1.9716
     3.5489   4.0956   4.1294   4.1465   4.3498   4.9618   5.0081   5.0215
     5.0731   5.0801   9.3396  10.4666  11.4798  11.5624  12.4930  12.5139
    12.5766  12.5786  12.7707  12.8787  12.8799  13.0171  13.9524  14.0576
    14.1819  14.2358  14.7537  15.0038  15.0630  15.3396  15.8438  15.8791
    16.3801  16.4766  16.8964  17.8247  18.1588  18.3344  18.6454  19.7264
    20.0889  20.4399  20.4428  20.8455  21.1895  21.5510  21.6285  21.6985
    21.7542  21.7565  22.2139  22.2591  22.9937  23.2199  23.4465  23.7882
    23.9236  24.0917  25.0133  25.7235  25.8536  26.0914

          k = 0.1540 0.0887 0.0000 (  7993 PWs)   bands (ev):

    -8.2668  -8.1775  -8.0840  -7.9832  -0.8167  -0.3607   0.8570   2.0147
     3.4450   3.8122   3.8284   3.8716   4.2221   4.8433   4.8923   4.9064
     4.9580   5.0935   9.4245  10.4366  11.2382  11.3275  12.4051  12.4338
    12.5165  12.5515  12.7894  12.8096  12.9602  13.1071  13.8341  14.0297
    14.0536  14.4066  14.7997  15.1153  15.1513  15.4773  15.7583  15.9013
    16.2714  16.4386  16.7716  17.7948  18.1742  18.4674  18.8482  19.8807
    20.0825  20.4294  20.5979  20.8456  21.3919  21.6301  21.6704  21.9600
    21.9768  22.1253  22.2785  22.3336  23.1887  23.3495  23.7015  23.8481
    24.1581  24.4274  25.1251  25.7831  25.8289  26.0313

          k = 0.1733 0.0998 0.0000 (  7997 PWs)   bands (ev):

    -8.1870  -8.0994  -8.0059  -7.9071  -0.7216  -0.2771   0.9413   2.0538
     3.2624   3.5223   3.5263   3.6019   4.1739   4.7074   4.7612   4.7706
     4.8275   5.1128   9.5140  10.3953  10.9950  11.0880  12.1333  12.3578
    12.3925  12.4442  12.8394  12.9102  13.0651  13.2171  13.6128  13.8240
    13.9450  14.5530  14.9221  15.1910  15.3858  15.6521  15.6595  16.0560
    16.2585  16.4516  16.6856  17.7365  18.1598  18.5982  19.0211  19.8977
    20.1194  20.4096  20.8406  20.8580  21.6154  21.6385  21.6609  22.1675
    22.1694  22.3745  22.4230  22.5315  23.2049  23.6569  23.8055  24.2963
    24.5145  24.7587  25.1852  25.8277  25.8525  26.0102

          k = 0.1925 0.1108 0.0000 (  7993 PWs)   bands (ev):

    -8.0992  -8.0135  -7.9201  -7.8236  -0.6171  -0.1872   1.0338   2.0799
     3.0273   3.2161   3.2437   3.3505   4.1827   4.5565   4.6152   4.6189
     4.6822   5.1316   9.6068  10.3424  10.7504  10.8447  11.8343  12.1500
    12.2855  12.3755  12.9472  13.0259  13.1785  13.3198  13.3782  13.6317
    13.7943  14.5986  15.0625  15.2013  15.4860  15.5942  15.7590  16.3376
    16.4218  16.6052  16.7154  17.6569  18.1216  18.7311  19.1667  19.8881
    20.1914  20.3846  20.8395  21.0523  21.5529  21.7931  21.8408  22.0685
    22.2690  22.6069  22.6420  22.8877  23.3917  23.7674  24.3147  24.7661
    24.8116  25.0754  25.1960  25.9108  25.9474  26.0109

          k = 0.2118 0.1219 0.0000 (  7997 PWs)   bands (ev):

    -8.0038  -7.9202  -7.8270  -7.7331  -0.5038  -0.0933   1.1336   2.0770
     2.7689   2.9135   2.9703   3.1363   4.2172   4.3964   4.4530   4.4557
     4.5232   5.1478   9.7014  10.2778  10.5043  10.5974  11.5276  11.8894
    12.2238  12.3152  13.0687  13.0876  13.1479  13.3100  13.4653  13.4739
    13.6455  14.5745  15.0958  15.2485  15.3191  15.5886  15.7267  16.7148
    16.7332  16.9263  16.9332  17.5696  18.0683  18.8722  19.2947  19.8992
    20.2685  20.3493  20.8423  21.1467  21.4325  21.9045  21.9087  22.1094
    22.4536  22.7307  22.9168  23.1441  23.7516  24.0613  24.8288  24.8490
    25.2228  25.3902  25.4133  25.8481  26.0582  26.2163

          k = 0.2310 0.1330 0.0000 (  8009 PWs)   bands (ev):

    -7.9015  -7.8202  -7.7275  -7.6364  -0.3830   0.0018   1.2394   2.0217
     2.5049   2.6189   2.7120   2.9850   4.1789   4.2624   4.2834   4.3250
     4.3516   5.1597   9.7952  10.2022  10.2567  10.3460  11.2217  11.6290
    12.1748  12.2625  12.8454  13.1841  13.2626  13.3492  13.4387  13.5262
    13.6114  14.5182  14.9884  15.1224  15.3882  15.4706  15.6051  17.1044
    17.1122  17.2674  17.3437  17.5373  18.0097  19.0311  19.4149  19.9365
    20.2995  20.3348  20.8418  21.2196  21.3040  21.7516  21.9080  22.4420
    22.7458  22.8021  23.2062  23.3083  24.1483  24.4777  24.7611  25.3759
    25.5726  25.6791  25.7874  25.8002  26.1652  26.4844

          k = 0.2503 0.1441 0.0000 (  8001 PWs)   bands (ev):

    -7.7930  -7.7142  -7.6222  -7.5342  -0.2568   0.0935   1.3478   1.8995
     2.2462   2.3373   2.4756   2.9126   4.0010   4.0754   4.1003   4.1689
     4.3758   5.1657   9.8842  10.0081  10.0907  10.1171  10.9216  11.3772
    12.1383  12.2109  12.6316  13.1799  13.3120  13.3983  13.5038  13.5756
    13.7568  14.4443  14.8446  14.9361  15.2984  15.4355  15.5373  17.2079
    17.4928  17.6541  17.7054  17.8775  17.9818  19.2228  19.5338  19.9969
    20.2424  20.3900  20.8198  21.1989  21.3172  21.6312  21.8937  22.7684
    22.8628  23.0745  23.4067  23.5022  24.3364  24.8747  24.9621  25.6834
    25.7643  25.8818  26.0394  26.2289  26.3042  26.7724

          k = 0.2695 0.1552 0.0000 (  7995 PWs)   bands (ev):

    -7.6790  -7.6031  -7.5120  -7.4273  -0.1281   0.1754   1.4495   1.7237
     2.0008   2.0796   2.2696   2.9069   3.8008   3.8735   3.9081   3.9769
     4.4488   5.1641   9.7596   9.8322   9.9628  10.0247  10.6304  11.1388
    12.1122  12.1446  12.4708  13.1163  13.2774  13.5329  13.6196  13.7187
    13.9070  14.3464  14.6833  14.7912  15.1093  15.2448  15.6829  17.1032
    17.8229  17.8233  18.0216  18.2549  18.3926  19.4631  19.6558  20.0766
    20.2076  20.4470  20.7593  21.1477  21.4469  21.5654  21.8956  22.9176
    23.0710  23.3950  23.4479  23.8001  24.3169  25.0748  25.4452  25.8105
    25.9713  26.0054  26.3114  26.6255  26.6844  27.0680

          k = 0.2888 0.1663 0.0000 (  7971 PWs)   bands (ev):

    -7.5606  -7.4876  -7.3979  -7.3169  -0.0019   0.2388   1.5034   1.5209
     1.7773   1.8883   2.1044   2.9418   3.5908   3.6631   3.7091   3.7776
     4.5257   5.1536   9.5127   9.5719   9.9272  10.0243  10.3509  10.9166
    12.0530  12.0928  12.3802  13.0771  13.2386  13.6899  13.7703  13.8653
    14.0435  14.2339  14.5160  14.7093  14.9245  15.0425  15.8256  16.9630
    17.7640  18.0642  18.3058  18.7364  18.8982  19.7364  19.7874  20.1737
    20.2551  20.5233  20.7004  21.1479  21.5535  21.6026  21.9299  22.9599
    23.3471  23.4420  23.6805  24.0891  24.2849  25.0917  25.9381  25.9610
    26.0750  26.0918  26.6410  26.8791  27.1675  27.3424

          k = 0.3080 0.1774 0.0000 (  7963 PWs)   bands (ev):

    -7.4389  -7.3691  -7.2812  -7.2040   0.1128   0.2735   1.3103   1.4062
     1.5868   1.8681   1.9913   2.9956   3.3742   3.4462   3.5063   3.5736
     4.6017   5.1330   9.2688   9.3119   9.8294  10.0587  10.0859  10.7125
    11.9608  12.0737  12.3401  13.0667  13.2216  13.8547  13.9274  13.9765
    14.0498  14.2729  14.3553  14.6775  14.7685  14.8428  15.9578  16.8100
    17.6947  18.2022  18.4555  19.2115  19.3715  19.9165  19.9474  20.2879
    20.4824  20.6354  20.7441  21.1845  21.5871  21.7764  22.0101  22.9817
    23.4110  23.5944  23.9184  24.2651  24.3478  25.0480  25.8913  26.0994
    26.2247  26.4392  26.9736  27.0760  27.5518  27.6616

          k = 0.3273 0.1884 0.0000 (  7947 PWs)   bands (ev):

    -7.3150  -7.2486  -7.1632  -7.0901   0.2016   0.2721   1.1047   1.2123
     1.4457   1.9391   1.9646   3.0467   3.1533   3.2251   3.3069   3.3716
     4.6734   5.1017   9.0276   9.0559   9.7347   9.8385  10.0595  10.5269
    11.8982  12.0469  12.3210  13.0826  13.2260  13.8663  14.0097  14.0634
    14.1687  14.2375  14.4025  14.6402  14.6664  14.7193  16.0660  16.6557
    17.6305  18.2448  18.4770  19.6432  19.7377  19.9207  20.1854  20.4190
    20.8031  20.8456  20.9407  21.3068  21.6633  21.9612  22.1509  22.9842
    23.3693  23.8036  24.1088  24.2469  24.5463  24.9955  25.8162  26.0313
    26.3119  26.8049  26.9617  27.5461  27.6836  27.7047

          k = 0.3465 0.1995 0.0000 (  7947 PWs)   bands (ev):

    -7.1905  -7.1276  -7.0454  -6.9765   0.2345   0.2454   0.9111   1.0095
     1.3746   1.9483   2.0906   2.9301   3.0015   3.0141   3.1233   3.2369
     4.7376   5.0596   8.7834   8.8125   9.6128   9.6474  10.0251  10.3596
    11.8709  12.0040  12.3097  13.1187  13.2443  13.7565  14.0066  14.1487
    14.2579  14.3014  14.4691  14.5705  14.7085  14.7570  16.1208  16.5223
    17.5843  18.2073  18.4222  19.8461  19.9569  20.0048  20.5016  20.5635
    20.9547  21.0496  21.3477  21.6295  21.8184  22.1630  22.3581  22.9822
    23.3072  23.9499  24.2278  24.2659  24.6498  24.9250  25.6896  26.0020
    26.3275  26.7940  26.9584  27.3362  27.8064  27.9527

          k = 0.3658 0.2106 0.0000 (  7951 PWs)   bands (ev):

    -7.0669  -7.0077  -6.9294  -6.8650   0.1701   0.2331   0.7342   0.8193
     1.3854   2.0097   2.2237   2.7067   2.7775   2.8398   2.9210   3.2622
     4.7911   5.0075   8.5360   8.5842   9.4131   9.5718   9.9611  10.2093
    11.8515  11.9468  12.3099  13.1644  13.2636  13.6912  13.9233  14.1276
    14.2523  14.4669  14.5630  14.6389  14.8254  14.8817  16.0779  16.4436
    17.5724  18.1112  18.3348  19.7510  20.1203  20.2702  20.7035  20.8034
    20.9457  21.3607  21.6119  22.0899  22.1851  22.4022  22.6174  22.9977
    23.1999  24.0049  24.2140  24.3843  24.6519  24.8070  25.5157  26.0603
    26.3008  26.5435  26.8814  27.0940  27.9791  28.0386

          k = 0.3850 0.2217 0.0000 (  7950 PWs)   bands (ev):

    -6.9460  -6.8905  -6.8173  -6.7573   0.0923   0.1759   0.5776   0.6483
     1.4679   2.1084   2.3496   2.4862   2.5551   2.6464   2.7116   3.3208
     4.8314   4.9472   8.2931   8.3652   9.2437   9.5120   9.8784  10.0739
    11.7754  11.8983  12.3443  13.1933  13.2753  13.6791  13.8795  14.0606
    14.2337  14.6555  14.6672  14.8034  14.9384  15.0740  15.9520  16.3992
    17.6082  17.9819  18.2365  19.6497  20.2647  20.4654  20.8297  20.8916
    21.0490  21.6655  21.7249  22.5703  22.6782  22.6861  22.8975  23.0275
    23.0819  23.9699  24.2087  24.3292  24.6304  24.6986  25.3734  26.1609
    26.2639  26.3386  26.7370  27.0098  27.9564  28.1708

          k = 0.4043 0.2328 0.0000 (  7948 PWs)   bands (ev):

    -6.8296  -6.7779  -6.7108  -6.6553   0.0139   0.0974   0.4441   0.5002
     1.5980   2.2031   2.2893   2.3449   2.3666   2.4925   2.5689   3.3787
     4.8563   4.8817   8.0586   8.1536   9.1080   9.4716   9.7886   9.9506
    11.6415  11.8305  12.4338  13.1639  13.2891  13.7188  13.8886  14.0490
    14.2438  14.7453  14.8471  14.9946  15.0915  15.2745  15.8018  16.3402
    17.6928  17.8393  18.1413  19.5427  20.4007  20.6111  20.8070  20.9191
    21.2424  21.7800  21.9044  22.6537  22.9197  22.9985  23.1302  23.1522
    23.4138  23.8850  24.1708  24.1847  24.4822  24.8144  25.3418  26.1541
    26.2445  26.3755  26.6415  27.0497  27.9102  28.3411

          k = 0.4235 0.2439 0.0000 (  7930 PWs)   bands (ev):

    -6.7198  -6.6718  -6.6120  -6.5609  -0.0552   0.0179   0.3363   0.3773
     1.7517   2.0460   2.1115   2.1913   2.2893   2.3937   2.6699   3.4291
     4.8133   4.8667   7.8352   7.9493   9.0078   9.4539   9.7020   9.8366
    11.4771  11.7235  12.5727  13.0855  13.2929  13.8028  13.9480  14.1182
    14.2842  14.8030  15.0228  15.1909  15.2690  15.4758  15.6689  16.2584
    17.6965  17.8142  18.0611  19.4289  20.5234  20.6961  20.7150  20.9443
    21.3840  21.7791  22.0488  22.3170  22.9637  23.0940  23.2224  23.5111
    23.8826  23.8897  24.1350  24.2004  24.5532  24.9405  25.4513  26.1640
    26.2574  26.5422  26.6208  27.1677  27.9059  28.4304

          k = 0.4428 0.2550 0.0000 (  7934 PWs)   bands (ev):

    -6.6185  -6.5740  -6.5227  -6.4757  -0.1079  -0.0499   0.2557   0.2818
     1.8035   1.9015   1.9616   1.9949   2.0869   2.5328   2.7951   3.4690
     4.7490   4.8611   7.6254   7.7538   8.9422   9.4611   9.6264   9.7289
    11.2955  11.5869  12.7447  12.9859  13.2869  13.9220  14.0531  14.2470
    14.3426  14.8536  15.1360  15.3769  15.4570  15.6105  15.6708  16.1694
    17.5640  17.9551  18.0036  19.3092  20.5592  20.6077  20.7731  20.8827
    21.4433  21.6880  21.9022  22.1036  22.8353  23.1725  23.2169  23.5734
    24.0121  24.0520  24.3608  24.6273  24.8381  25.0949  25.6682  26.3056
    26.3090  26.6663  26.7275  27.3331  27.9375  28.4131

          k = 0.4620 0.2660 0.0000 (  7926 PWs)   bands (ev):

    -6.5275  -6.4862  -6.4448  -6.4016  -0.1397  -0.0986   0.2035   0.2152
     1.6187   1.6985   1.8013   1.8904   2.1231   2.6677   2.9170   3.4968
     4.6938   4.8430   7.4321   7.5689   8.9086   9.4946   9.5680   9.6255
    11.1055  11.4320  12.8835  12.9375  13.2852  14.0680  14.1867  14.3974
    14.4133  14.9148  15.1339  15.5258  15.6458  15.6879  15.8497  16.1048
    17.4540  17.9701  18.0975  19.1872  20.3938  20.5244  20.7469  20.8532
    21.3535  21.3743  21.5725  22.1631  22.7328  23.2200  23.2616  23.5611
    24.1138  24.2343  24.5435  25.2037  25.2388  25.2613  25.9515  26.4055
    26.5813  26.7736  26.9249  27.5321  27.9971  28.3843

          k = 0.4813 0.2771 0.0000 (  7928 PWs)   bands (ev):

    -6.4485  -6.4100  -6.3795  -6.3396  -0.1483  -0.1242   0.1756   0.1825
     1.4287   1.5042   1.6153   1.7018   2.2967   2.7852   3.0308   3.5117
     4.6542   4.8162   7.2590   7.3977   8.9022   9.5250   9.5274   9.5584
    10.9136  11.2674  12.7902  13.1421  13.2956  14.2326  14.3226  14.4241
    14.6033  15.0071  15.0884  15.5912  15.8262  15.8427  15.9984  16.1144
    17.3813  17.9546  18.2221  19.0692  20.1944  20.1952  20.6824  20.8549
    20.9029  21.1857  21.3203  22.2977  22.7279  23.2599  23.3664  23.6334
    24.1727  24.3859  24.7046  25.4109  25.6236  25.7459  26.2314  26.5706
    26.9517  26.9591  27.1490  27.7622  28.0707  28.3627

          k = 0.5005 0.2882 0.0000 (  7932 PWs)   bands (ev):

    -6.3827  -6.3465  -6.3278  -6.2906  -0.1339  -0.1251   0.1677   0.1862
     1.2500   1.3215   1.4403   1.5235   2.4619   2.8753   3.1337   3.5138
     4.6352   4.7854   7.1106   7.2433   8.9175   9.4272   9.5147   9.6441
    10.7251  11.0994  12.7132  13.3177  13.3504  14.3856  14.4233  14.4335
    14.8043  15.0956  15.1402  15.5679  15.9840  16.0063  16.1019  16.2007
    17.3602  17.9441  18.3070  18.9643  19.7685  19.9546  20.4423  20.5234
    20.7916  21.0692  21.1251  22.4802  22.8011  23.3302  23.4953  23.7447
    24.1962  24.5053  24.8453  25.5282  25.9096  26.1934  26.4155  26.8419
    27.2153  27.3824  27.4164  28.0247  28.1343  28.3242

          k = 0.5198 0.2993 0.0000 (  7942 PWs)   bands (ev):

    -6.3307  -6.2963  -6.2902  -6.2551  -0.1058  -0.0969   0.1856   0.2143
     1.0887   1.1546   1.2814   1.3591   2.6104   2.9307   3.2242   3.5037
     4.6378   4.7559   6.9923   7.1097   8.9487   9.3330   9.5247   9.7541
    10.5457  10.9340  12.6567  13.3457  13.5540  14.3515  14.4627  14.5983
    14.9921  15.2042  15.3082  15.5299  16.0880  16.1406  16.1633  16.2920
    17.3923  17.9227  18.3368  18.8817  19.3216  19.6739  20.0522  20.3321
    20.7215  20.8554  21.1342  22.6805  22.9190  23.4281  23.6198  23.8609
    24.1891  24.5908  24.9715  25.6051  26.0966  26.4551  26.4920  27.2129
    27.5357  27.6815  27.7404  28.1717  28.1864  28.3278

          k = 0.5390 0.3104 0.0000 (  7942 PWs)   bands (ev):

    -6.2927  -6.2663  -6.2595  -6.2327  -0.0671  -0.0504   0.2243   0.2573
     0.9543   1.0105   1.1476   1.2149   2.7353   2.9496   3.3010   3.4824
     4.6567   4.7318   6.9103   7.0013   8.9908   9.2446   9.5558   9.8791
    10.3844  10.7781  12.6217  13.3707  13.7424  14.2767  14.4650  14.7713
    15.1101  15.3952  15.5007  15.5745  16.0975  16.2027  16.2039  16.3224
    17.4544  17.8851  18.3267  18.8230  18.9120  19.3848  19.7809  20.2071
    20.6645  20.6973  21.1477  22.8767  23.0521  23.5356  23.7155  23.9635
    24.1574  24.6375  25.0758  25.6391  26.2257  26.3733  26.6659  27.5823
    27.7463  27.7765  27.8232  28.1726  28.3335  28.5205

          k = 0.5583 0.3215 0.0000 (  7942 PWs)   bands (ev):

    -6.2683  -6.2554  -6.2357  -6.2226  -0.0241  -0.0082   0.2716   0.2972
     0.8631   0.9019   1.0556   1.1036   2.8311   2.9361   3.3638   3.4515
     4.6794   4.7164   6.8704   6.9228   9.0393   9.1658   9.5976   9.9930
    10.2650  10.6462  12.6058  13.3853  13.9000  14.1905  14.4654  14.9147
    15.1282  15.6302  15.7050  15.7520  16.0536  16.1395  16.1720  16.2530
    17.5051  17.8486  18.3317  18.5979  18.7771  19.1756  19.6332  20.1561
    20.5992  20.6276  21.1548  23.0418  23.1653  23.6284  23.7614  24.0370
    24.1156  24.6479  25.1366  25.6402  26.2574  26.3141  26.7566  27.6214
    27.8085  27.8218  27.8471  28.3441  28.5984  28.6475

          k = 0.5775 0.3325 0.0000 (  7952 PWs)   bands (ev):

    -6.2576  -6.2552  -6.2251  -6.2227   0.0010   0.0062   0.3034   0.3074
     0.8334   0.8543   1.0255   1.0534   2.8892   2.9034   3.4104   3.4148
     4.6891   4.7122   6.8707   6.8827   9.0801   9.1135   9.6217  10.0322
    10.2336  10.5830  12.6028  13.3889  13.9801  14.1355  14.4696  14.9815
    15.1208  15.8487  15.8630  15.9473  15.9544  16.0301  16.0825  16.1127
    17.5192  17.8349  18.3775  18.4424  18.7532  19.1053  19.5895  20.1449
    20.5649  20.6160  21.1575  23.1251  23.2091  23.6695  23.7653  24.0692
    24.0901  24.6432  25.1471  25.6357  26.2060  26.3503  26.7839  27.5760
    27.7952  27.8409  27.8990  28.4978  28.5171  28.8462

          k = 0.5775 0.3215 0.0000 (  7940 PWs)   bands (ev):

    -6.2607  -6.2544  -6.2283  -6.2218  -0.0089   0.0040   0.2898   0.3078
     0.8400   0.8692   1.0324   1.0693   2.8688   2.9183   3.3909   3.4321
     4.6876   4.7117   6.8659   6.8970   9.0658   9.1313   9.6132  10.0300
    10.2322  10.6026  12.6027  13.3886  13.9582  14.1505  14.4660  14.9562
    15.1228  15.7325  15.7905  15.8477  16.0156  16.0691  16.1531  16.2052
    17.5188  17.8380  18.3593  18.4876  18.7613  19.1226  19.5993  20.1477
    20.5742  20.6183  21.1557  23.0881  23.2020  23.6573  23.7685  24.0541
    24.1025  24.6477  25.1507  25.6369  26.2199  26.3382  26.7775  27.5838
    27.8002  27.8429  27.8897  28.4370  28.5526  28.8310

          k = 0.5775 0.3104 0.0000 (  7938 PWs)   bands (ev):

    -6.2671  -6.2552  -6.2345  -6.2225  -0.0319  -0.0079   0.2630   0.2970
     0.8628   0.9083   1.0562   1.1105   2.8393   2.9317   3.3681   3.4483
     4.6839   4.7083   6.8662   6.9247   9.0476   9.1605   9.5869  10.0250
    10.2304  10.6577  12.6016  13.3888  13.9123  14.1769  14.4538  14.8875
    15.1259  15.5666  15.6713  15.6911  16.0245  16.2113  16.2646  16.3424
    17.5220  17.8458  18.3491  18.5607  18.7826  19.1644  19.6234  20.1539
    20.6009  20.6234  21.1516  22.9953  23.1818  23.6248  23.7750  24.0228
    24.1246  24.6617  25.1653  25.6392  26.2537  26.3043  26.7635  27.5943
    27.8181  27.8450  27.8706  28.3596  28.5647  28.6559

          k = 0.5775 0.2993 0.0000 (  7940 PWs)   bands (ev):

    -6.2756  -6.2584  -6.2428  -6.2253  -0.0646  -0.0303   0.2268   0.2745
     0.9039   0.9667   1.0992   1.1712   2.8070   2.9391   3.3441   3.4616
     4.6784   4.7006   6.8746   6.9605   9.0352   9.1931   9.5459  10.0077
    10.2453  10.7363  12.5978  13.3907  13.8571  14.1998  14.4275  14.7777
    15.1099  15.3912  15.5218  15.5463  16.0592  16.3583  16.3881  16.4891
    17.5335  17.8570  18.3522  18.6445  18.8151  19.2262  19.6596  20.1643
    20.6293  20.6451  21.1431  22.8617  23.1454  23.5765  23.7804  23.9734
    24.1525  24.6865  25.1952  25.6419  26.2481  26.3021  26.7450  27.5897
    27.8279  27.8575  27.8667  28.2688  28.4824  28.5620

          k = 0.5775 0.2882 0.0000 (  7940 PWs)   bands (ev):

    -6.2859  -6.2636  -6.2529  -6.2302  -0.1046  -0.0617   0.1840   0.2423
     0.9619   1.0409   1.1599   1.2473   2.7727   2.9410   3.3193   3.4721
     4.6709   4.6885   6.8911   7.0023   9.0306   9.2285   9.4952   9.9724
    10.2866  10.8282  12.5901  13.3950  13.7972  14.2147  14.3788  14.6343
    15.0361  15.2055  15.3558  15.4778  16.1105  16.5083  16.5179  16.6405
    17.5563  17.8709  18.3633  18.7333  18.8569  19.3029  19.7068  20.1804
    20.6346  20.7059  21.1277  22.7003  23.0975  23.5170  23.7795  23.9048
    24.1824  24.7198  25.2406  25.6453  26.1713  26.3595  26.7247  27.5582
    27.7895  27.8772  27.9218  28.1631  28.3181  28.5171

          k = 0.5775 0.2771 0.0000 (  7938 PWs)   bands (ev):

    -6.2979  -6.2708  -6.2646  -6.2369  -0.1495  -0.0998   0.1370   0.2033
     1.0343   1.1278   1.2354   1.3359   2.7372   2.9382   3.2939   3.4801
     4.6609   4.6725   6.9147   7.0477   9.0354   9.2673   9.4389   9.9245
    10.3492  10.9272  12.5774  13.4016  13.7340  14.2199  14.2957  14.4660
    14.8895  15.0380  15.1817  15.4952  16.1700  16.6522  16.6600  16.7948
    17.5916  17.8869  18.3767  18.8226  18.9067  19.3897  19.7654  20.2030
    20.6387  20.7820  21.1033  22.5212  23.0469  23.4496  23.7695  23.8175
    24.2113  24.7558  25.2988  25.6508  26.0766  26.4207  26.7040  27.4987
    27.7279  27.8899  28.0035  28.0425  28.1734  28.3726

          k = 0.5775 0.2660 0.0000 (  7936 PWs)   bands (ev):

    -6.3113  -6.2797  -6.2775  -6.2453  -0.1974  -0.1424   0.0876   0.1598
     1.1186   1.2253   1.3231   1.4346   2.7012   2.9315   3.2680   3.4856
     4.6465   4.6547   6.9445   7.0942   9.0509   9.3100   9.3801   9.8704
    10.4262  11.0289  12.5591  13.4097  13.6679  14.1680  14.2125  14.2832
    14.6823  14.9345  15.0063  15.5588  16.2306  16.7904  16.8123  16.9508
    17.6399  17.9050  18.3886  18.9077  18.9635  19.4819  19.8359  20.2320
    20.6416  20.8716  21.0699  22.3325  23.0014  23.3770  23.7134  23.7497
    24.2371  24.7869  25.3657  25.6604  25.9676  26.4802  26.6823  27.4151
    27.6289  27.8967  27.9013  28.0573  28.1046  28.2327

          k = 0.5775 0.2550 0.0000 (  7924 PWs)   bands (ev):

    -6.3258  -6.2918  -6.2897  -6.2550  -0.2469  -0.1878   0.0372   0.1138
     1.2126   1.3312   1.4208   1.5416   2.6651   2.9219   3.2419   3.4891
     4.6250   4.6385   6.9792   7.1395   9.0786   9.3204   9.3573   9.8138
    10.5128  11.1300  12.5352  13.4178  13.5983  13.9979  14.0808  14.2036
    14.4497  14.8368  14.8872  15.6458  16.2865  16.9320  16.9633  17.1076
    17.7006  17.9256  18.3966  18.9838  19.0270  19.5758  19.9189  20.2651
    20.6439  20.9728  21.0314  22.1409  22.9653  23.3008  23.5956  23.7217
    24.2587  24.8049  25.4365  25.6756  25.8479  26.5330  26.6570  27.3135
    27.4915  27.7399  27.8997  27.9709  28.1041  28.2075

          k = 0.5775 0.2439 0.0000 (  7938 PWs)   bands (ev):

    -6.3412  -6.3068  -6.3012  -6.2660  -0.2968  -0.2347  -0.0133   0.0666
     1.3142   1.4440   1.5267   1.6557   2.6297   2.9103   3.2157   3.4906
     4.5992   4.6219   7.0173   7.1814   9.1196   9.2609   9.4100   9.7566
    10.6056  11.2268  12.5056  13.4242  13.5237  13.7981  13.8834  14.1737
    14.2096  14.6809  14.8799  15.7468  16.3333  17.0765  17.1107  17.2643
    17.7710  17.9507  18.4005  19.0452  19.0972  19.6688  20.0135  20.2967
    20.6469  20.9960  21.0835  21.9528  22.9380  23.2221  23.4687  23.6891
    24.2751  24.8036  25.5055  25.6962  25.7207  26.5736  26.6226  27.2019
    27.3303  27.5741  27.8363  27.9467  28.0028  28.1553

          k = 0.5775 0.2328 0.0000 (  7946 PWs)   bands (ev):

    -6.3574  -6.3224  -6.3137  -6.2779  -0.3465  -0.2821  -0.0632   0.0192
     1.4218   1.5622   1.6393   1.7757   2.5955   2.8976   3.1897   3.4905
     4.5710   4.6037   7.0574   7.2179   9.1744   9.2024   9.4686   9.6998
    10.7021  11.3154  12.4703  13.4264  13.4386  13.5817  13.6933  13.9688
    14.1284  14.5476  14.9025  15.8571  16.3684  17.2227  17.2504  17.4198
    17.8430  17.9879  18.4024  19.0866  19.1744  19.7596  20.1175  20.3175
    20.6540  20.9750  21.2016  21.7758  22.9140  23.1401  23.3396  23.6573
    24.2859  24.7796  25.5664  25.5889  25.7185  26.5716  26.5947  27.0912
    27.1601  27.4084  27.7419  27.9187  27.9519  28.1216

          k = 0.5775 0.2217 0.0000 (  7934 PWs)   bands (ev):

    -6.3741  -6.3386  -6.3269  -6.2905  -0.3955  -0.3291  -0.1120  -0.0277
     1.5339   1.6842   1.7575   1.9007   2.5635   2.8848   3.1639   3.4891
     4.5414   4.5839   7.0980   7.2478   9.1453   9.2434   9.5339   9.6441
    10.7996  11.3908  12.4292  13.3268  13.3516  13.4280  13.5342  13.7325
    14.0645  14.4438  14.9485  15.9733  16.3907  17.3682  17.3758  17.5730
    17.9006  18.0536  18.4072  19.1030  19.2589  19.8471  20.2277  20.3191
    20.6680  20.9763  21.3253  21.6197  22.8844  23.0502  23.2200  23.6330
    24.2907  24.7331  25.4545  25.6118  25.7359  26.4955  26.5842  26.9909
    26.9942  27.2563  27.6483  27.8511  27.9576  28.0967

          k = 0.5775 0.2106 0.0000 (  7924 PWs)   bands (ev):

    -6.3911  -6.3552  -6.3407  -6.3038  -0.4431  -0.3753  -0.1595  -0.0736
     1.6486   1.8080   1.8802   2.0298   2.5349   2.8731   3.1386   3.4865
     4.5109   4.5628   7.1379   7.2704   9.0900   9.3262   9.5899   9.6061
    10.8952  11.4470  12.3811  13.1260  13.1732  13.4037  13.4297  13.5162
    13.9858  14.3693  15.0139  16.0928  16.4002  17.4780  17.5072  17.7226
    17.9416  18.1530  18.4220  19.0929  19.3507  19.9305  20.3024  20.3403
    20.6816  21.0023  21.4523  21.4996  22.8396  22.9445  23.1252  23.6225
    24.2892  24.6663  25.3190  25.6345  25.7402  26.3880  26.5280  26.8291
    26.9126  27.1458  27.5612  27.7975  27.9550  28.0803

          k = 0.5775 0.1995 0.0000 (  7926 PWs)   bands (ev):

    -6.4082  -6.3718  -6.3549  -6.3174  -0.4893  -0.4202  -0.2052  -0.1181
     1.7644   1.9306   2.0066   2.1622   2.5122   2.8638   3.1138   3.4831
     4.4800   4.5408   7.1758   7.2854   9.0367   9.4220   9.5373   9.6854
    10.9847  11.4774  12.3236  12.9005  13.0003  13.2540  13.3686  13.4320
    13.9026  14.3160  15.0959  16.2127  16.3979  17.5470  17.6259  17.8659
    17.9891  18.2738  18.4542  19.0610  19.4492  20.0084  20.2773  20.4516
    20.6729  21.0523  21.4345  21.5808  22.7733  22.8255  23.0612  23.6284
    24.2808  24.5828  25.1837  25.6303  25.7215  26.2492  26.4272  26.6766
    26.8241  27.1122  27.4789  27.7562  27.9319  28.0799

          k = 0.5775 0.1884 0.0000 (  7936 PWs)   bands (ev):

    -6.4253  -6.3885  -6.3693  -6.3312  -0.5336  -0.4636  -0.2491  -0.1610
     1.8790   2.0466   2.1357   2.2973   2.5004   2.8585   3.0898   3.4791
     4.4492   4.5182   7.2109   7.2931   8.9855   9.4865   9.5295   9.7717
    11.0623  11.4763  12.2520  12.6814  12.8333  13.0514  13.3386  13.4107
    13.8240  14.2757  15.1918  16.3293  16.3851  17.5777  17.7026  17.9962
    18.0708  18.4074  18.5054  19.0218  19.5533  20.0794  20.2533  20.5572
    20.6246  21.1252  21.4349  21.7086  22.6845  22.7063  23.0243  23.6477
    24.2649  24.4873  25.0492  25.5985  25.6726  26.0861  26.2946  26.5310
    26.7365  27.1424  27.3969  27.7253  27.8839  28.0838

          k = 0.5775 0.1774 0.0000 (  7936 PWs)   bands (ev):

    -6.4422  -6.4049  -6.3837  -6.3451  -0.5760  -0.5052  -0.2909  -0.2020
     1.9896   2.1446   2.2666   2.4342   2.5102   2.8596   3.0666   3.4748
     4.4188   4.4954   7.2423   7.2940   8.9366   9.4377   9.6468   9.8645
    11.1201  11.4408  12.1585  12.4736  12.6875  12.8654  13.3366  13.3903
    13.7560  14.2430  15.2992  16.3632  16.4379  17.5741  17.7308  18.0988
    18.1949  18.5491  18.5689  19.0019  19.6611  20.1420  20.2353  20.5432
    20.6533  21.2174  21.4900  21.8338  22.5765  22.5984  23.0124  23.6724
    24.2406  24.3853  24.9162  25.5327  25.6016  25.9081  26.1406  26.3894
    26.6700  27.2033  27.3095  27.7024  27.8156  28.0693

          k = 0.5775 0.1663 0.0000 (  7930 PWs)   bands (ev):

    -6.4588  -6.4210  -6.3980  -6.3589  -0.6163  -0.5447  -0.3306  -0.2409
     2.0926   2.2083   2.3982   2.5573   2.5719   2.8699   3.0445   3.4706
     4.3892   4.4726   7.2696   7.2888   8.8900   9.3908   9.7719   9.9629
    11.1481  11.3721  12.0346  12.2817  12.5758  12.7081  13.3583  13.3673
    13.7031  14.2151  15.4156  16.3334  16.5310  17.5477  17.7261  18.1493
    18.3463  18.6415  18.6956  19.0298  19.7702  20.1953  20.2253  20.4472
    20.7357  21.3219  21.5807  21.9549  22.4557  22.5106  23.0261  23.6907
    24.2066  24.2848  24.7849  25.4195  25.5329  25.7234  25.9730  26.2505
    26.6255  27.2126  27.2738  27.6831  27.7308  27.9525

          k = 0.5775 0.1552 0.0000 (  7938 PWs)   bands (ev):

    -6.4749  -6.4367  -6.4120  -6.3724  -0.6543  -0.5822  -0.3680  -0.2778
     2.1826   2.2343   2.5294   2.6456   2.7096   2.8932   3.0239   3.4669
     4.3605   4.4501   7.2783   7.2924   8.8457   9.3459   9.9024  10.0651
    11.1367  11.2754  11.8816  12.1043  12.5087  12.5850  13.3415  13.3921
    13.6738  14.1909  15.5383  16.2968  16.5990  17.5121  17.7021  18.1357
    18.5109  18.7330  18.8439  19.1089  19.8772  20.2244  20.2393  20.3515
    20.8022  21.4299  21.6917  22.0712  22.3312  22.4496  23.0654  23.6873
    24.1613  24.1972  24.6557  25.2714  25.4676  25.5385  25.7990  26.1148
    26.5945  27.1034  27.3387  27.6317  27.6635  27.7947

          k = 0.5775 0.1441 0.0000 (  7934 PWs)   bands (ev):

    -6.4904  -6.4518  -6.4256  -6.3855  -0.6900  -0.6174  -0.4031  -0.3124
     2.2275   2.2653   2.6589   2.7594   2.8453   2.9330   3.0057   3.4643
     4.3330   4.4282   7.2631   7.3107   8.8038   9.3029  10.0351  10.1686
    11.0824  11.1578  11.7144  11.9358  12.4901  12.4926  13.3131  13.4159
    13.6838  14.1699  15.6638  16.2545  16.6304  17.4774  17.6654  18.0831
    18.6812  18.8429  18.9910  19.2183  19.9781  20.2339  20.2658  20.2750
    20.8536  21.5267  21.8123  22.1834  22.2200  22.4196  23.1282  23.6473
    24.1035  24.1334  24.5284  25.1035  25.3591  25.4024  25.6248  25.9837
    26.5692  26.9814  27.3837  27.5199  27.6331  27.6444

          k = 0.5775 0.1330 0.0000 (  7930 PWs)   bands (ev):

    -6.5052  -6.4662  -6.4387  -6.3981  -0.7232  -0.6503  -0.4358  -0.3446
     2.2194   2.3198   2.7849   2.8846   2.9591   2.9914   3.0093   3.4635
     4.3069   4.4072   7.2440   7.3244   8.7644   9.2617  10.1659  10.2694
    10.9900  11.0277  11.5499  11.7762  12.4226  12.5147  13.2821  13.4145
    13.7424  14.1521  15.7878  16.2072  16.6191  17.4428  17.6191  18.0331
    18.8527  18.9587  19.1328  19.3362  20.0691  20.1972  20.2569  20.3040
    20.8960  21.5824  21.9314  22.1582  22.2931  22.4204  23.2089  23.5687
    24.0334  24.0924  24.4022  24.9247  25.1908  25.3351  25.4577  25.8587
    26.5449  26.8474  27.3964  27.3977  27.4758  27.6318

          k = 0.5775 0.1219 0.0000 (  7914 PWs)   bands (ev):

    -6.5192  -6.4798  -6.4511  -6.4101  -0.7540  -0.6807  -0.4660  -0.3745
     2.2047   2.3584   2.9033   2.9635   3.0130   3.0673   3.1228   3.4658
     4.2824   4.3871   7.2218   7.3337   8.7274   9.2225  10.2877  10.3615
    10.8680  10.8942  11.4019  11.6321  12.3671  12.5713  13.2487  13.3958
    13.8356  14.1378  15.9033  16.1556  16.5695  17.3965  17.5650  18.0203
    19.0209  19.0688  19.2645  19.4443  20.1483  20.1551  20.2956  20.3283
    20.9404  21.5586  22.0400  22.1894  22.4020  22.4476  23.2970  23.4645
    23.9558  24.0583  24.2755  24.7407  25.0390  25.2477  25.3207  25.7412
    26.5194  26.7038  27.2675  27.3235  27.3756  27.6271

          k = 0.5775 0.1108 0.0000 (  7908 PWs)   bands (ev):

    -6.5322  -6.4926  -6.4627  -6.4214  -0.7822  -0.7087  -0.4937  -0.4018
     2.1883   2.3827   2.9427   3.0215   3.1373   3.1597   3.2503   3.4735
     4.2595   4.3683   7.1969   7.3390   8.6929   9.1850  10.3833  10.4414
    10.7300  10.7608  11.2838  11.5152  12.3212  12.6484  13.2130  13.3712
    13.9461  14.1285  15.9983  16.1005  16.4970  17.3348  17.5042  18.0569
    19.1652  19.1798  19.3810  19.5255  20.1483  20.2163  20.3527  20.3544
    20.9976  21.4669  22.1490  22.2880  22.4930  22.5121  23.3521  23.3724
    23.8838  24.0136  24.1497  24.5565  24.9079  25.1149  25.2428  25.6323
    26.4917  26.5540  27.1333  27.1741  27.3326  27.6232

          k = 0.5775 0.0998 0.0000 (  7918 PWs)   bands (ev):

    -6.5443  -6.5043  -6.4736  -6.4318  -0.8079  -0.7341  -0.5188  -0.4267
     2.1719   2.3964   2.9298   3.1186   3.2431   3.2750   3.3737   3.4901
     4.2384   4.3508   7.1700   7.3406   8.6608   9.1492  10.4232  10.5100
    10.5896  10.6273  11.2109  11.4415  12.2815  12.7367  13.1747  13.3459
    14.0556  14.1333  16.0425  16.0512  16.4245  17.2742  17.4379  18.1330
    19.2417  19.3194  19.4796  19.5696  20.1785  20.2694  20.3954  20.4359
    21.0730  21.3515  22.2605  22.4030  22.5468  22.6231  23.2479  23.3999
    23.8310  23.9466  24.0447  24.3771  24.7990  24.9794  25.1833  25.5332
    26.4022  26.4613  26.9959  27.0273  27.2802  27.6142

          k = 0.5775 0.0887 0.0000 (  7926 PWs)   bands (ev):

    -6.5553  -6.5150  -6.4835  -6.4414  -0.8309  -0.7570  -0.5414  -0.4491
     2.1563   2.4031   2.9168   3.1971   3.3417   3.3947   3.4897   3.5218
     4.2191   4.3348   7.1419   7.3390   8.6313   9.1152  10.4048  10.4534
    10.4975  10.5455  11.1939  11.4252  12.2464  12.8293  13.1338  13.3221
    14.0979  14.2133  15.9825  16.0376  16.3731  17.2387  17.3672  18.2332
    19.2950  19.4237  19.5635  19.5821  20.2290  20.3066  20.4775  20.5400
    21.1647  21.2457  22.3529  22.5165  22.5962  22.7349  23.1704  23.3572
    23.7560  23.8531  24.0290  24.2075  24.7118  24.8564  25.1263  25.4446
    26.2522  26.4286  26.8502  26.8893  27.2265  27.6003

          k = 0.5775 0.0776 0.0000 (  7940 PWs)   bands (ev):

    -6.5651  -6.5246  -6.4924  -6.4500  -0.8513  -0.7772  -0.5614  -0.4689
     2.1420   2.4054   2.9049   3.2515   3.4373   3.5087   3.5650   3.6029
     4.2018   4.3203   7.1134   7.3347   8.6044   9.0830  10.3253  10.3465
    10.3755  10.5340  11.2300  11.4643  12.2145  12.9208  13.0901  13.3008
    14.1034  14.3341  15.9217  15.9645  16.3337  17.2460  17.2936  18.3456
    19.3243  19.4834  19.5773  19.6324  20.2695  20.3525  20.5935  20.6622
    21.1776  21.2676  22.3920  22.6261  22.6315  22.8447  23.1356  23.2684
    23.6397  23.7400  24.0514  24.1069  24.6459  24.7465  25.0672  25.3671
    26.1078  26.3941  26.6949  26.7629  27.1756  27.5843

          k = 0.5775 0.0665 0.0000 (  7936 PWs)   bands (ev):

    -6.5738  -6.5331  -6.5002  -6.4576  -0.8691  -0.7948  -0.5788  -0.4861
     2.1292   2.4052   2.8945   3.2842   3.5273   3.6139   3.6258   3.7017
     4.1864   4.3074   7.0852   7.3284   8.5802   9.0529  10.2083  10.2646
    10.2698  10.4876  11.3020  11.5406  12.1853  13.0070  13.0436  13.2824
    14.1090  14.4553  15.8614  15.8644  16.2832  17.2190  17.2972  18.4620
    19.3312  19.5092  19.5668  19.6749  20.2718  20.4269  20.7318  20.7945
    21.1731  21.3762  22.3639  22.6191  22.7503  22.9433  23.1319  23.1663
    23.5316  23.6317  23.9110  24.2085  24.6088  24.6477  25.0029  25.3014
    25.9724  26.3593  26.5348  26.6458  27.1296  27.5697

          k = 0.5775 0.0554 0.0000 (  7940 PWs)   bands (ev):

    -6.5812  -6.5403  -6.5069  -6.4641  -0.8841  -0.8097  -0.5935  -0.5007
     2.1182   2.4036   2.8855   3.3023   3.6090   3.6900   3.7083   3.7899
     4.1729   4.2963   7.0584   7.3209   8.5589   9.0253  10.1049  10.1677
    10.1904  10.4268  11.3907  11.6344  12.1585  12.9948  13.0839  13.2675
    14.1176  14.5699  15.7597  15.8035  16.2196  17.1460  17.3790  18.5764
    19.3202  19.5157  19.5555  19.6884  20.2284  20.5292  20.8842  20.9298
    21.2387  21.4864  22.2886  22.5634  22.8643  22.9604  23.1034  23.1252
    23.4627  23.5730  23.7912  24.2796  24.5571  24.6259  24.9318  25.2479
    25.8491  26.3259  26.3727  26.5388  27.0894  27.5591

          k = 0.5775 0.0443 0.0000 (  7932 PWs)   bands (ev):

    -6.5873  -6.5462  -6.5125  -6.4695  -0.8964  -0.8219  -0.6056  -0.5127
     2.1090   2.4015   2.8781   3.3121   3.6800   3.7501   3.7896   3.8650
     4.1615   4.2870   7.0342   7.3130   8.5408   9.0009  10.0172  10.0865
    10.1178  10.3658  11.4826  11.7297  12.1351  12.9448  13.1480  13.2570
    14.1290  14.6734  15.6623  15.7502  16.1527  17.0777  17.4743  18.6833
    19.2973  19.5127  19.5440  19.6828  20.1563  20.6460  21.0444  21.0646
    21.3551  21.5955  22.1905  22.4636  22.8405  22.9471  23.0247  23.1989
    23.4378  23.5747  23.7148  24.2895  24.4735  24.7163  24.8541  25.2065
    25.7398  26.2113  26.2959  26.4443  27.0554  27.5534

          k = 0.5775 0.0333 0.0000 (  7918 PWs)   bands (ev):

    -6.5920  -6.5509  -6.5168  -6.4737  -0.9060  -0.8315  -0.6149  -0.5220
     2.1018   2.3994   2.8724   3.3174   3.7379   3.8011   3.8559   3.9255
     4.1520   4.2795   7.0137   7.3057   8.5262   8.9804   9.9470  10.0223
    10.0574  10.3129  11.5690  11.8127  12.1179  12.8958  13.1935  13.2545
    14.1417  14.7613  15.5794  15.7042  16.0920  17.0180  17.5682  18.7771
    19.2693  19.5060  19.5319  19.6691  20.0780  20.7608  21.1964  21.2062
    21.4960  21.7023  22.0847  22.3357  22.6912  22.8504  23.0593  23.2847
    23.4405  23.5555  23.7371  24.2627  24.3979  24.7732  24.8500  25.1767
    25.6455  26.0557  26.2709  26.3653  27.0279  27.5518

          k = 0.5775 0.0222 0.0000 (  7940 PWs)   bands (ev):

    -6.5955  -6.5543  -6.5200  -6.4768  -0.9129  -0.8383  -0.6217  -0.5286
     2.0966   2.3976   2.8682   3.3203   3.7809   3.8395   3.9052   3.9698
     4.1448   4.2739   6.9981   7.2997   8.5154   8.9648   9.8959   9.9760
    10.0125  10.2726  11.6430  11.8690  12.1123  12.8524  13.2128  13.2664
    14.1535  14.8288  15.5162  15.6683  16.0442  16.9710  17.6476  18.8514
    19.2429  19.4992  19.5196  19.6549  20.0109  20.8582  21.3194  21.3613
    21.6385  21.8050  21.9815  22.1974  22.5450  22.7067  23.1022  23.3583
    23.4524  23.5297  23.8121  24.2276  24.3346  24.6964  24.9952  25.1577
    25.5639  25.9156  26.2522  26.3053  27.0076  27.5527

          k = 0.5775 0.0111 0.0000 (  7944 PWs)   bands (ev):

    -6.5976  -6.5563  -6.5219  -6.4786  -0.9170  -0.8424  -0.6257  -0.5326
     2.0935   2.3965   2.8657   3.3217   3.8075   3.8634   3.9357   3.9969
     4.1400   4.2705   6.9882   7.2958   8.5088   8.9550   9.8648   9.9481
     9.9849  10.2477  11.6963  11.8925  12.1187  12.8212  13.2159  13.2823
    14.1619  14.8716  15.4766  15.6453  16.0139  16.9407  17.7012  18.8992
    19.2249  19.4944  19.5094  19.6449  19.9664  20.9239  21.4193  21.4921
    21.7547  21.8949  21.8974  22.0694  22.4257  22.5872  23.1176  23.4102
    23.4613  23.5250  23.8775  24.2000  24.2908  24.6373  25.1237  25.1521
    25.4899  25.8117  26.2406  26.2677  26.9951  27.5542

          k = 0.5775 0.0000 0.0000 (  7946 PWs)   bands (ev):

    -6.5982  -6.5570  -6.5225  -6.4792  -0.9184  -0.8437  -0.6270  -0.5340
     2.0925   2.3961   2.8649   3.3221   3.8164   3.8714   3.9461   4.0060
     4.1384   4.2694   6.9849   7.2945   8.5065   8.9517   9.8543   9.9388
     9.9756  10.2392  11.7166  11.8962  12.1239  12.8096  13.2159  13.2885
    14.1650  14.8863  15.4632  15.6374  16.0036  16.9303  17.7201  18.9156
    19.2187  19.4926  19.5053  19.6413  19.9508  20.9471  21.4624  21.5511
    21.8019  21.8579  21.9573  21.9919  22.3746  22.5375  23.1200  23.4304
    23.4631  23.5269  23.9035  24.1894  24.2749  24.6143  25.1406  25.1996
    25.4466  25.7725  26.2367  26.2549  26.9909  27.5549

          k = 0.5583 0.0000 0.0000 (  7936 PWs)   bands (ev):

    -6.6076  -6.5660  -6.5299  -6.4862  -0.9056  -0.8284  -0.6128  -0.5184
     2.0600   2.3892   2.8493   3.3229   3.8196   3.8746   3.9492   4.0091
     4.1383   4.3040   6.9835   7.3095   8.5141   8.9665   9.8597   9.9445
     9.9814  10.2422  11.7308  11.9001  12.1276  12.8169  13.1207  13.3707
    14.1683  14.8885  15.4674  15.6574  16.0110  16.9344  17.7226  18.8719
    19.2175  19.4441  19.5281  19.6950  19.9563  20.8980  21.4495  21.4836
    21.6941  21.7696  21.9530  21.9588  22.3121  22.4054  23.1820  23.4484
    23.4496  23.6285  23.9902  24.1837  24.2023  24.7401  25.1894  25.2528
    25.4856  25.7919  26.2504  26.3283  27.0227  27.5295

          k = 0.5390 0.0000 0.0000 (  7934 PWs)   bands (ev):

    -6.6352  -6.5924  -6.5521  -6.5071  -0.8675  -0.7834  -0.5703  -0.4719
     1.9743   2.3611   2.8050   3.3234   3.8290   3.8838   3.9584   4.0182
     4.1572   4.3837   6.9837   7.3517   8.5375   9.0095   9.8756   9.9615
     9.9989  10.2513  11.7727  11.9117  12.1386  12.8385  12.9880  13.4658
    14.1781  14.8951  15.4803  15.7161  16.0331  16.9466  17.7298  18.7623
    19.2132  19.3641  19.5753  19.7882  19.9685  20.7567  21.2988  21.4090
    21.4290  21.5386  21.8407  21.9647  22.1316  22.1457  23.2397  23.3980
    23.4906  23.8781  24.1433  24.1799  24.2105  24.9637  25.3287  25.4042
    25.5774  25.8752  26.3037  26.5216  27.1099  27.4558

          k = 0.5198 0.0000 0.0000 (  7943 PWs)   bands (ev):

    -6.6796  -6.6350  -6.5886  -6.5416  -0.8048  -0.7105  -0.5002  -0.3959
     1.8553   2.3041   2.7374   3.3196   3.8446   3.8993   3.9737   4.0333
     4.2079   4.4805   6.9952   7.4152   8.5777   9.0773   9.9022   9.9898
    10.0282  10.2675  11.8413  11.9311  12.1569  12.8486  12.8741  13.5463
    14.1945  14.9059  15.5015  15.8102  16.0691  16.9669  17.7414  18.6191
    19.2040  19.2854  19.6157  19.8796  19.9746  20.5395  21.0327  21.0876
    21.2293  21.3285  21.6670  21.8355  21.9183  21.9775  23.2157  23.3011
    23.5362  24.1619  24.1912  24.1921  24.4947  25.1899  25.5389  25.6327
    25.6898  26.0379  26.4193  26.7890  27.2349  27.3415

          k = 0.5005 0.0000 0.0000 (  7939 PWs)   bands (ev):

    -6.7387  -6.6919  -6.6387  -6.5890  -0.7190  -0.6129  -0.4036  -0.2920
     1.7186   2.2204   2.6522   3.3079   3.8663   3.9208   3.9951   4.0544
     4.2856   4.5783   7.0275   7.4961   8.6357   9.1655   9.9395  10.0296
    10.0696  10.2916  11.9348  11.9581  12.1823  12.7083  12.9232  13.6119
    14.2172  14.9206  15.5310  15.9342  16.1178  16.9949  17.7564  18.4619
    19.1857  19.2122  19.6301  19.9467  19.9570  20.2665  20.7142  20.7174
    20.8885  21.1590  21.4506  21.6120  21.6737  21.9988  23.1572  23.1729
    23.5730  24.1990  24.2170  24.5131  24.7889  25.3989  25.7916  25.8217
    25.9129  26.2487  26.6022  27.0874  27.2019  27.3804

          k = 0.4813 0.0000 0.0000 (  7951 PWs)   bands (ev):

    -6.8105  -6.7610  -6.7010  -6.6481  -0.6129  -0.4944  -0.2818  -0.1623
     1.5748   2.1184   2.5541   3.2862   3.8942   3.9483   4.0224   4.0813
     4.3784   4.6669   7.0888   7.5929   8.7114   9.2686   9.9876  10.0809
    10.1232  10.3250  11.9926  12.0510  12.2147  12.5722  12.9849  13.6647
    14.2461  14.9387  15.5682  16.0811  16.1774  17.0300  17.7735  18.3014
    19.1441  19.1502  19.5964  19.9106  19.9558  19.9570  20.3306  20.3747
    20.5466  20.8742  21.2093  21.4627  21.5189  22.0286  23.0307  23.1134
    23.5975  24.2068  24.2483  24.8035  25.0536  25.5870  25.9741  26.0540
    26.2197  26.4709  26.8268  27.0631  27.3565  27.5335

          k = 0.4620 0.0000 0.0000 (  7945 PWs)   bands (ev):

    -6.8927  -6.8402  -6.7739  -6.7175  -0.4902  -0.3599  -0.1369  -0.0091
     1.4325   2.0079   2.4469   3.2541   3.9280   3.9817   4.0555   4.1139
     4.4724   4.7421   7.1845   7.7060   8.8037   9.3809  10.0469  10.1437
    10.1895  10.3688  12.0345  12.1875  12.2539  12.4449  13.0584  13.7079
    14.2807  14.9594  15.6123  16.2424  16.2453  17.0711  17.7900  18.1441
    19.0788  19.0820  19.4830  19.6217  19.8469  19.8711  19.9490  20.0189
    20.2306  20.5535  20.9554  21.3425  21.5036  22.0664  22.8858  23.1029
    23.6101  24.1778  24.2834  25.0170  25.2545  25.7448  26.1394  26.2896
    26.5290  26.6796  26.9666  27.0445  27.5240  27.6832

          k = 0.4428 0.0000 0.0000 (  7959 PWs)   bands (ev):

    -6.9830  -6.9274  -6.8555  -6.7955  -0.3564  -0.2169   0.0291   0.1653
     1.3007   1.8985   2.3338   3.2122   3.9675   4.0208   4.0943   4.1521
     4.5523   4.8063   7.3167   7.8364   8.9108   9.4962  10.1177  10.2184
    10.2686  10.4242  12.0836  12.2996  12.3316  12.3418  13.1427  13.7450
    14.3206  14.9818  15.6619  16.3179  16.4082  17.1155  17.8015  17.9945
    18.9564  19.0133  19.2747  19.2847  19.5792  19.6597  19.6759  19.7367
    19.9714  20.2854  20.7076  21.3332  21.5229  22.1116  22.7462  23.1258
    23.6113  24.1231  24.3216  25.1037  25.3633  25.8517  26.3056  26.4589
    26.8166  26.8600  26.9624  27.1948  27.5941  27.8002

          k = 0.4235 0.0000 0.0000 (  7955 PWs)   bands (ev):

    -7.0795  -7.0207  -6.9441  -6.8802  -0.2191  -0.0765   0.2137   0.3585
     1.1915   1.8001   2.2172   3.1621   4.0127   4.0653   4.1385   4.1957
     4.6035   4.8675   7.4844   7.9853   9.0295   9.6078  10.2001  10.3050
    10.3607  10.4924  12.1395  12.2377  12.3514  12.5113  13.2369  13.7795
    14.3652  15.0047  15.7146  16.3901  16.5668  17.1586  17.7990  17.8559
    18.7533  18.9224  18.9459  19.0275  19.2329  19.3040  19.4003  19.5093
    19.7929  20.1501  20.4891  21.4049  21.5546  22.1634  22.6192  23.1717
    23.6012  24.0583  24.3623  25.0437  25.3665  25.8836  26.4553  26.5300
    27.0092  27.0585  27.0732  27.2200  27.6040  27.8021

          k = 0.4043 0.0000 0.0000 (  7957 PWs)   bands (ev):

    -7.1803  -7.1183  -7.0378  -6.9700  -0.0890   0.0431   0.4146   0.5679
     1.1241   1.7237   2.0996   3.1055   4.0632   4.1152   4.1879   4.2444
     4.6193   4.9304   7.6842   8.1537   9.1565   9.7089  10.2939  10.4039
    10.4659  10.5744  12.1694  12.2019  12.4089  12.6935  13.3400  13.8148
    14.4137  15.0262  15.7670  16.4550  16.7030  17.1915  17.7295  17.7655
    18.4831  18.5707  18.7374  18.8789  18.9284  18.9573  19.0845  19.2030
    19.6875  20.1138  20.3189  21.5152  21.5859  22.2208  22.5154  23.2214
    23.5792  24.0006  24.4044  24.8684  25.2729  25.8251  26.4957  26.5643
    27.0896  27.1364  27.2346  27.2713  27.5613  27.6849

          k = 0.3850 0.0000 0.0000 (  7965 PWs)   bands (ev):

    -7.2837  -7.2186  -7.1349  -7.0633   0.0159   0.1205   0.6289   0.7910
     1.1242   1.6825   1.9835   3.0450   4.1189   4.1702   4.2423   4.2979
     4.6050   4.9912   7.9112   8.3417   9.2876   9.7935  10.3977  10.5153
    10.5837  10.6715  12.1328  12.2704  12.4715  12.8857  13.4512  13.8539
    14.4649  15.0440  15.8143  16.5025  16.7959  17.2031  17.6116  17.6731
    18.1755  18.2243  18.4345  18.6246  18.6946  18.7337  18.8527  18.8935
    19.6263  20.1132  20.2087  21.6096  21.6247  22.2826  22.4536  23.2466
    23.5440  23.9698  24.4454  24.6237  25.1076  25.6781  26.3759  26.6054
    26.8383  27.2277  27.3362  27.4765  27.4899  27.5131

          k = 0.3658 0.0000 0.0000 (  7975 PWs)   bands (ev):

    -7.3883  -7.3201  -7.2338  -7.1586   0.0610   0.1601   0.8530   1.0235
     1.2072   1.6903   1.8730   2.9832   4.1793   4.2298   4.3013   4.3560
     4.5696   5.0440   8.1606   8.5484   9.4180   9.8582  10.5095  10.6390
    10.7132  10.7855  12.1338  12.3444  12.5383  13.0852  13.5694  13.8992
    14.5170  15.0551  15.8506  16.5188  16.8142  17.1860  17.4876  17.4994
    17.8543  17.8876  18.1387  18.3110  18.4251  18.5551  18.6300  18.8393
    19.5859  20.1231  20.1604  21.6226  21.6943  22.3472  22.4618  23.2201
    23.4943  23.9791  24.3429  24.4811  24.8981  25.4604  26.1990  26.5304
    26.5582  27.0981  27.2087  27.3702  27.4491  27.6403

          k = 0.3465 0.0000 0.0000 (  7979 PWs)   bands (ev):

    -7.4926  -7.4216  -7.3333  -7.2546   0.0249   0.1834   1.0817   1.2559
     1.3617   1.7569   1.7783   2.9238   4.2442   4.2938   4.3646   4.4182
     4.5206   5.0859   8.4276   8.7724   9.5410   9.9034  10.6278  10.7734
    10.8524  10.9189  12.1762  12.4230  12.6085  13.2891  13.6939  13.9526
    14.5677  15.0555  15.8691  16.4847  16.7290  17.1304  17.2574  17.3264
    17.5328  17.5650  17.8825  18.0221  18.1611  18.4523  18.4978  18.8862
    19.5522  20.1336  20.1696  21.6230  21.7040  22.4124  22.5541  23.1340
    23.4291  24.0153  24.0457  24.5040  24.6668  25.1999  25.9894  26.2020
    26.3950  26.7398  26.8653  27.1025  27.3549  27.4475

          k = 0.3273 0.0000 0.0000 (  7973 PWs)   bands (ev):

    -7.5957  -7.5220  -7.4321  -7.3501  -0.0561   0.1765   1.3002   1.4476
     1.5637   1.7491   1.8819   2.8718   4.3132   4.3618   4.4317   4.4632
     4.4842   5.1160   8.7078   9.0113   9.6459   9.9372  10.7520  10.9161
    11.0001  11.0730  12.2606  12.5054  12.6807  13.4937  13.8243  14.0150
    14.6133  15.0406  15.8641  16.3808  16.5488  16.9806  16.9969  17.0951
    17.2192  17.2613  17.7158  17.7637  17.9965  18.3780  18.4897  18.9795
    19.5166  20.1398  20.2294  21.6097  21.6716  22.4750  22.7096  22.9983
    23.3481  23.7444  24.0343  24.4300  24.5006  24.9364  25.7648  25.8638
    26.0591  26.3421  26.4885  26.7410  27.1954  27.2568

          k = 0.3080 0.0000 0.0000 (  7981 PWs)   bands (ev):

    -7.6965  -7.6202  -7.5291  -7.4440  -0.1559   0.1387   1.3991   1.5845
     1.7946   1.8993   2.0557   2.8351   4.3857   4.4016   4.4332   4.5022
     4.5533   5.1350   8.9976   9.2624   9.7131   9.9784  10.8825  11.0648
    11.1579  11.2464  12.3842  12.5900  12.7533  13.6941  13.9605  14.0851
    14.6486  15.0054  15.8292  16.2055  16.3064  16.6946  16.7678  16.8029
    16.9189  16.9829  17.5419  17.6588  17.9434  18.3919  18.5053  19.1002
    19.4734  20.1387  20.3325  21.5808  21.6267  22.5299  22.8240  22.8969
    23.2526  23.4476  23.9659  24.1992  24.4473  24.7338  25.5149  25.5386
    25.5903  25.9700  26.1007  26.4599  26.9349  27.0500

          k = 0.2888 0.0000 0.0000 (  7985 PWs)   bands (ev):

    -7.7942  -7.7155  -7.6236  -7.5356  -0.2623   0.0791   1.3382   1.7736
     2.0430   2.1474   2.2658   2.8276   4.3391   4.4612   4.5075   4.5754
     4.6252   5.1442   9.2933   9.5229   9.7281  10.0437  11.0194  11.2173
    11.3277  11.4363  12.5412  12.6752  12.8243  13.8824  14.1041  14.1590
    14.6661  14.9458  15.7442  15.9966  16.0305  16.4139  16.4823  16.4903
    16.6367  16.7376  17.3622  17.6872  17.9610  18.4660  18.5296  19.2313
    19.4186  20.1287  20.4687  21.5335  21.5913  22.5691  22.6196  23.0916
    23.1464  23.1618  23.7605  23.9827  24.3117  24.6361  25.0884  25.1557
    25.3218  25.6422  25.7150  26.2216  26.6815  26.8525

          k = 0.2695 0.0000 0.0000 (  7973 PWs)   bands (ev):

    -7.8881  -7.8072  -7.7146  -7.6239  -0.3694   0.0067   1.2503   1.9328
     2.3014   2.4191   2.5010   2.8708   4.2788   4.5392   4.5842   4.6508
     4.6991   5.1452   9.5915   9.7029   9.7900  10.1239  11.1628  11.3722
    11.5102  11.6396  12.7245  12.7585  12.8912  14.0468  14.2271  14.2579
    14.6558  14.8605  15.5579  15.7424  15.8234  16.1474  16.1853  16.2010
    16.3771  16.5353  17.2274  17.7696  18.0094  18.5532  18.5771  19.3490
    19.3623  20.1090  20.6216  21.4641  21.5842  22.3931  22.5797  22.8928
    23.0377  23.2670  23.4636  23.7863  24.0803  24.5622  24.5949  24.8251
    25.1252  25.3368  25.3761  26.0211  26.4442  26.6618

          k = 0.2503 0.0000 0.0000 (  7981 PWs)   bands (ev):

    -7.9776  -7.8946  -7.8016  -7.7084  -0.4737  -0.0719   1.1598   2.0306
     2.5636   2.6995   2.7527   2.9845   4.2241   4.6188   4.6625   4.7276
     4.7744   5.1398   9.6554   9.8890  10.0610  10.2040  11.3122  11.5283
    11.7051  11.8529  12.8367  12.9252  12.9509  14.1749  14.2697  14.4192
    14.6066  14.7525  15.2956  15.4591  15.6469  15.9019  15.9136  16.0009
    16.1448  16.3854  17.1370  17.8809  18.0662  18.5686  18.7100  19.2627
    19.4892  20.0803  20.7665  21.3686  21.6249  22.1539  22.5447  22.6464
    22.9385  23.1361  23.3480  23.6137  23.8089  24.1518  24.2889  24.6851
    24.9596  24.9793  25.1378  25.8788  26.2010  26.4805

          k = 0.2310 0.0000 0.0000 (  7997 PWs)   bands (ev):

    -8.0621  -7.9773  -7.8839  -7.7885  -0.5735  -0.1520   1.0722   2.0672
     2.8230   2.9835   3.0147   3.1657   4.1796   4.6994   4.7416   4.8051
     4.8502   5.1293   9.5962  10.1830  10.2768  10.3334  11.4664  11.6846
    11.9098  12.0703  12.9054  13.0003  13.1322  14.2544  14.2548  14.5121
    14.5664  14.6279  15.0345  15.1943  15.4245  15.6834  15.7093  15.9168
    15.9443  16.2936  17.0866  17.9998  18.1189  18.5695  18.8551  19.1595
    19.6121  20.0435  20.8783  21.2443  21.7261  21.9135  22.4278  22.4555
    22.8092  22.8523  23.1648  23.4666  23.5177  23.9051  23.9497  24.4965
    24.7755  24.8357  24.8918  25.7966  25.9082  26.3186

          k = 0.2118 0.0000 0.0000 (  7999 PWs)   bands (ev):

    -8.1412  -8.0546  -7.9612  -7.8636  -0.6674  -0.2308   0.9893   2.0636
     3.0697   3.2682   3.2820   3.3915   4.1528   4.7801   4.8208   4.8823
     4.9257   5.1153   9.5308  10.3393  10.4708  10.6046  11.6236  11.8398
    12.1193  12.2824  12.9592  13.0363  13.3280  14.1524  14.2648  14.3797
    14.4891  14.5965  14.8972  14.9594  15.2299  15.4981  15.6145  15.7804
    15.9027  16.2573  17.0693  18.1054  18.1588  18.5496  19.0062  19.0405
    19.7330  19.9989  20.9499  21.0938  21.6845  21.8662  22.2425  22.3247
    22.4979  22.7645  22.8146  23.1435  23.3448  23.5107  23.9867  24.1462
    24.6477  24.7236  24.7615  25.6047  25.7462  26.1938

          k = 0.1925 0.0000 0.0000 (  8003 PWs)   bands (ev):

    -8.2145  -8.1264  -8.0328  -7.9334  -0.7546  -0.3062   0.9121   2.0391
     3.2874   3.5502   3.5512   3.6406   4.1575   4.8598   4.8990   4.9583
     4.9999   5.0991   9.4627  10.3906  10.7508  10.8719  11.7809  11.9918
    12.3229  12.4722  12.9916  13.0570  13.4805  13.9702  14.1840  14.2262
    14.3367  14.4438  14.7794  14.9462  15.1422  15.3522  15.6342  15.6567
    15.9369  16.2672  17.0772  18.1772  18.1797  18.5037  18.9084  19.1561
    19.8537  19.9446  20.9303  20.9922  21.4783  21.9531  22.0945  22.1719
    22.2091  22.4411  22.6586  22.8569  23.1239  23.2464  23.7804  23.9824
    24.4660  24.6188  24.7394  25.3874  25.6973  26.1256

          k = 0.1733 0.0000 0.0000 (  8001 PWs)   bands (ev):

    -8.2817  -8.1922  -8.0986  -7.9975  -0.8345  -0.3767   0.8411   2.0053
     3.4518   3.8170   3.8284   3.8990   4.2152   4.9376   4.9752   5.0321
     5.0718   5.0818   9.3940  10.4308  11.0213  11.1324  11.9339  12.1369
    12.5007  12.6120  12.9982  13.0610  13.5387  13.7458  14.0410  14.0657
    14.1757  14.3104  14.7075  14.9578  15.2112  15.2507  15.5750  15.7344
    16.0122  16.3111  17.1029  18.1771  18.1999  18.4281  18.7672  19.2825
    19.8841  19.9741  20.7787  21.0135  21.3017  21.8357  21.9456  21.9867
    22.0112  22.0805  22.5304  22.7550  22.8113  23.1679  23.4251  23.8412
    24.3994  24.4017  24.7655  25.3160  25.6471  26.0686

          k = 0.1540 0.0000 0.0000 (  7993 PWs)   bands (ev):

    -8.3425  -8.2517  -8.1582  -8.0556  -0.9068  -0.4415   0.7769   1.9684
     3.5459   4.0775   4.0980   4.1574   4.3394   5.0123   5.0482   5.0644
     5.1024   5.1404   9.3263  10.4606  11.2810  11.3825  12.0755  12.2684
    12.6175  12.6693  12.9800  13.0466  13.4751  13.5187  13.9072  13.9154
    14.0139  14.2631  14.7763  14.9603  15.1959  15.3368  15.5341  15.8804
    16.1203  16.3782  17.1398  18.1486  18.1696  18.3229  18.6207  19.3178
    19.8589  20.0908  20.6621  21.0026  21.1565  21.5735  21.7085  21.7516
    21.8516  21.9191  22.3844  22.4154  22.9160  23.0939  23.1049  23.6711
    24.1139  24.3758  24.8315  25.3394  25.6123  25.9651

          k = 0.1348 0.0000 0.0000 (  8003 PWs)   bands (ev):

    -8.3966  -8.3047  -8.2113  -8.1073  -0.9711  -0.4998   0.7197   1.9320
     3.5827   4.3276   4.3558   4.4091   4.5134   5.0480   5.0826   5.1170
     5.1682   5.2044   9.2609  10.4809  11.5273  11.6176  12.1932  12.3740
    12.6170  12.6528  12.9426  13.0134  13.3037  13.3555  13.7570  13.8582
    13.8612  14.3241  14.9477  14.9896  15.1857  15.4634  15.5298  16.0500
    16.2508  16.4600  17.1822  18.0935  18.0943  18.1933  18.4710  19.1980
    19.9113  20.1921  20.5863  20.9163  21.0345  21.3016  21.5015  21.5150
    21.6997  21.8895  22.1208  22.2288  22.8043  22.9221  23.0523  23.6435
    23.8175  24.3378  24.9282  25.3682  25.5980  25.8602

          k = 0.1155 0.0000 0.0000 (  7993 PWs)   bands (ev):

    -8.4439  -8.3511  -8.2577  -8.1526  -1.0272  -0.5511   0.6697   1.8981
     3.5883   4.5620   4.5972   4.6479   4.7067   5.0342   5.1473   5.1802
     5.2282   5.2627   9.1986  10.4925  11.7535  11.8296  12.2652  12.4323
    12.5170  12.5807  12.8932  12.9653  13.1541  13.2309  13.6195  13.7141
    13.8705  14.4773  15.0590  15.1690  15.2144  15.5548  15.5776  16.2286
    16.3932  16.5496  17.2250  17.9889  18.0130  18.0488  18.3192  18.9755
    19.9687  20.2482  20.5454  20.7336  20.9150  21.0694  21.3347  21.4251
    21.5610  21.8899  21.8931  22.0716  22.5815  22.7589  23.0054  23.5365
    23.7735  24.3107  25.0470  25.2880  25.5951  25.8409

          k = 0.0963 0.0000 0.0000 (  7983 PWs)   bands (ev):

    -8.4842  -8.3906  -8.2973  -8.1912  -1.0749  -0.5950   0.6272   1.8680
     3.5804   4.7722   4.8170   4.8679   4.8962   5.0268   5.2051   5.2366
     5.2813   5.3143   9.1406  10.4968  11.9328  12.0023  12.2656  12.4183
    12.4225  12.4709  12.8392  12.9088  13.0853  13.1660  13.4981  13.5858
    13.8931  14.6889  15.1752  15.2728  15.4090  15.6002  15.6726  16.4056
    16.5392  16.6413  17.2640  17.8700  17.9005  17.9094  18.1675  18.7116
    19.9657  20.2070  20.5018  20.5167  20.7934  20.9473  21.2135  21.4193
    21.4399  21.7442  21.9204  21.9231  22.4540  22.5382  22.9601  23.2818
    23.8679  24.3776  25.0742  25.1803  25.5952  25.9292

          k = 0.0770 0.0000 0.0000 (  7973 PWs)   bands (ev):

    -8.5173  -8.4230  -8.3298  -8.2230  -1.1141  -0.6313   0.5922   1.8425
     3.5682   4.9297   5.0094   5.0393   5.0623   5.0772   5.2546   5.2849
     5.3264   5.3580   9.0885  10.4952  11.9783  12.0994  12.1989  12.3543
    12.4087  12.4230  12.7867  12.8513  13.0900  13.1703  13.3957  13.4765
    13.8940  14.9293  15.3288  15.3509  15.6501  15.6555  15.7431  16.5716
    16.6820  16.7296  17.2959  17.7518  17.7597  17.7868  18.0203  18.4375
    19.9104  20.0720  20.3075  20.3885  20.6988  20.9550  21.1096  21.3402
    21.4405  21.7144  21.7820  21.9718  22.3187  22.4316  22.9138  23.0574
    23.8482  24.5629  24.8010  25.3207  25.5989  26.0492

          k = 0.0578 0.0000 0.0000 (  7971 PWs)   bands (ev):

    -8.5431  -8.4484  -8.3553  -8.2479  -1.1447  -0.6597   0.5649   1.8223
     3.5560   4.9689   5.1518   5.1682   5.2186   5.2243   5.2947   5.3239
     5.3626   5.3930   9.0441  10.4897  11.9049  12.0586  12.1065  12.2634
    12.4894  12.5179  12.7412  12.7993  13.1326  13.2100  13.3141  13.3888
    13.8687  15.1730  15.4372  15.4956  15.7096  15.7868  15.8785  16.7177
    16.8090  16.8157  17.3188  17.6374  17.6453  17.6518  17.8853  18.1727
    19.8357  19.9164  20.1266  20.2309  20.6229  20.9918  21.0248  21.2640
    21.4667  21.6628  21.8016  22.0301  22.1231  22.4925  22.8649  22.8666
    23.7852  24.5142  24.7710  25.4597  25.6156  26.1167

          k = 0.0385 0.0000 0.0000 (  7973 PWs)   bands (ev):

    -8.5617  -8.4666  -8.3735  -8.2657  -1.1666  -0.6800   0.5453   1.8075
     3.5462   4.9696   5.2626   5.2872   5.3242   5.3284   5.3467   5.3526
     5.3889   5.4185   9.0098  10.4828  11.8173  11.9759  12.0237  12.1813
    12.6015  12.6268  12.7064  12.7582  13.1813  13.2536  13.2549  13.3247
    13.8291  15.3933  15.5193  15.6462  15.7520  15.8051  16.0778  16.8357
    16.8734  16.9340  17.3324  17.5165  17.5439  17.5590  17.7725  17.9368
    19.7661  19.7870  19.9889  20.0878  20.5588  20.8788  21.1052  21.2122
    21.4889  21.5696  21.9476  21.9654  22.0874  22.5865  22.7166  22.8222
    23.7239  24.2456  24.9360  25.5852  25.6553  26.0495

          k = 0.0193 0.0000 0.0000 (  7969 PWs)   bands (ev):

    -8.5728  -8.4775  -8.3845  -8.2764  -1.1797  -0.6923   0.5335   1.7986
     3.5399   4.9675   5.3340   5.3423   5.3611   5.3703   5.3971   5.4050
     5.4231   5.4340   8.9879  10.4771  11.7560  11.9155  11.9688  12.1261
    12.6747  12.6847  12.7126  12.7319  13.2170  13.2190  13.2845  13.2857
    13.7929  15.5584  15.5814  15.7512  15.7760  15.8034  16.2224  16.9160
    16.9170  17.0248  17.3386  17.4045  17.4865  17.5030  17.6954  17.7582
    19.7036  19.7179  19.9033  19.9912  20.5159  20.7994  21.1687  21.1831
    21.5028  21.5094  21.8594  22.0930  22.1306  22.5357  22.7463  22.7886
    23.6818  24.0371  25.0312  25.6783  25.7075  25.9638

          k = 0.0000 0.0000 0.0000 (  7959 PWs)   bands (ev):

    -8.5765  -8.4812  -8.3881  -8.2800  -1.1841  -0.6964   0.5296   1.7956
     3.5377   4.9666   5.3484   5.3585   5.3762   5.3862   5.4104   5.4205
     5.4392   5.4492   8.9803  10.4749  11.7345  11.8940  11.9497  12.1068
    12.6773  12.6996  12.7228  12.7451  13.2070  13.2299  13.2725  13.2955
    13.7781  15.6055  15.6259  15.7809  15.7827  15.8032  16.2772  16.9310
    16.9481  17.0619  17.3402  17.3574  17.4676  17.4854  17.6674  17.6856
    19.6749  19.7007  19.8743  19.9572  20.5009  20.7711  21.1738  21.1935
    21.4885  21.5074  21.8211  22.1470  22.1671  22.4722  22.7756  22.7947
    23.6669  23.9534  25.0604  25.7140  25.7332  25.9312

     Writing all to output data dir ./work/Al2S2.save/
 
     init_run     :      4.57s CPU      4.62s WALL (       1 calls)
     electrons    :    209.53s CPU    257.49s WALL (       1 calls)

     Called by init_run:
     wfcinit      :      0.00s CPU      0.00s WALL (       1 calls)
     potinit      :      4.43s CPU      4.46s WALL (       1 calls)
     hinit0       :      0.08s CPU      0.10s WALL (       1 calls)

     Called by electrons:
     c_bands      :    209.53s CPU    257.49s WALL (       1 calls)
     v_of_rho     :      4.33s CPU      4.35s WALL (       1 calls)
     newd         :      0.03s CPU      0.04s WALL (       1 calls)
     PAW_pot      :      0.10s CPU      0.11s WALL (       1 calls)
     vdW_kernel   :      4.30s CPU      4.30s WALL (       1 calls)

     Called by c_bands:
     init_us_2    :      0.05s CPU      0.06s WALL (      91 calls)
     init_us_2:cp :      0.05s CPU      0.06s WALL (      91 calls)
     cegterg      :    205.21s CPU    251.76s WALL (     360 calls)

     Called by *egterg:
     cdiaghg      :     32.46s CPU     33.20s WALL (    6462 calls)
     h_psi        :    106.76s CPU    150.74s WALL (    6822 calls)
     s_psi        :     10.55s CPU     10.87s WALL (    6822 calls)
     g_psi        :      0.30s CPU      0.30s WALL (    6371 calls)

     Called by h_psi:
     h_psi:calbec :     12.50s CPU     15.84s WALL (    6822 calls)
     vloc_psi     :     78.74s CPU    118.57s WALL (    6822 calls)
     add_vuspsi   :     14.77s CPU     15.56s WALL (    6822 calls)

     General routines
     calbec       :     12.48s CPU     15.82s WALL (    6822 calls)
     fft          :      0.01s CPU      0.03s WALL (      62 calls)
     fftw         :     75.60s CPU    114.07s WALL (  459432 calls)
     davcio       :      0.05s CPU      0.07s WALL (     182 calls)
 
     Parallel routines
 
     PWSCF        :   3m35.11s CPU   4m24.40s WALL

 
   This run was terminated on:  13:22:42  18Jun2023            

=------------------------------------------------------------------------------=
   JOB DONE.
=------------------------------------------------------------------------------=
