
     Program BANDS v.7.0 starts on 18Jun2023 at 13:22:45 

     This program is part of the open-source Quantum ESPRESSO suite
     for quantum simulation of materials; please cite
         "P. Giannozzi et al., J. Phys.:Condens. Matter 21 395502 (2009);
         "P. Giannozzi et al., J. Phys.:Condens. Matter 29 465901 (2017);
         "P. Giannozzi et al., J. Chem. Phys. 152 154105 (2020);
          URL http://www.quantum-espresso.org", 
     in publications or presentations arising from this work. More details at
     http://www.quantum-espresso.org/quote

     Parallel version (MPI), running on    16 processors

     MPI processes distributed on     1 nodes
     R & G space division:  proc/nbgrp/npool/nimage =      16
     2751 MiB available memory on the printing compute node when the environment starts
 

     Reading xml data from directory:

     ./work/Al2S2.save/
     Message from routine volume:
     axis vectors are left-handed
     file Al.pbe-n-kjpaw_psl.1.0.0.UPF: wavefunction(s)  3S 3P renormalized
     file S.pbe-n-kjpaw_psl.1.0.0.UPF: wavefunction(s)  3S 3P renormalized

     IMPORTANT: XC functional enforced from input :
     Exchange-correlation= VDW-DF2-B86R
                           (   1   4  26   0   2   0   0)
     Any further DFT definition will be discarded
     Please, verify this is what you really want

 
     Parallelization info
     --------------------
     sticks:   dense  smooth     PW     G-vecs:    dense   smooth      PW
     Min          39      39     11                 3969     3969     627
     Max          40      40     12                 3977     3977     642
     Sum         625     625    187                63569    63569   10233
 
     Using Slab Decomposition
 


     %%%%%%%%%%%%%%%%%%%%%%%%%%%%%%%%%%%%%%%%%%%%%%%%%%%%%%%%%%%%%%%%%%%%%%%%
     %                                                                      %
     % You are using vdW-DF, which was implemented by the Thonhauser group. %
     % Please cite the following two papers that made this development      %
     % possible and the two reviews that describe the various versions:     %
     %                                                                      %
     %   T. Thonhauser et al., PRL 115, 136402 (2015).                      %
     %   T. Thonhauser et al., PRB 76, 125112 (2007).                       %
     %   K. Berland et al., Rep. Prog. Phys. 78, 066501 (2015).             %
     %   D.C. Langreth et al., J. Phys.: Condens. Matter 21, 084203 (2009). %
     %                                                                      %
     %                                                                      %
     % If you are calculating the stress with vdW-DF, please also cite:     %
     %                                                                      %
     %   R. Sabatini et al., J. Phys.: Condens. Matter 24, 424209 (2012).   %
     %                                                                      %
     %%%%%%%%%%%%%%%%%%%%%%%%%%%%%%%%%%%%%%%%%%%%%%%%%%%%%%%%%%%%%%%%%%%%%%%%


     Reading collected, re-writing distributed wavefunctions
     high-symmetry point:  0.0000 0.0000 0.0000   x coordinate   0.0000
     high-symmetry point:  0.5775 0.3325 0.0000   x coordinate   0.6664
     high-symmetry point:  0.5775 0.0000 0.0000   x coordinate   0.9990
     high-symmetry point:  0.0000 0.0000 0.0000   x coordinate   1.5765

     Plottable bands (eV) written to file AB.bands.gnu
     Bands written to file AB.bands

 **************************************************************************

                    xk=(   0.00000,   0.00000,   0.00000  )

     point group C_s (m)    
     there are  2 classes
     the character table:

       E     s    
A'     1.00  1.00
A''    1.00 -1.00

     the symmetry operations in each class and the name of the first element:

     E        1
                                                                 
     s        2
                                                                 

     Band symmetry, C_s (m)     point group:

     e(  1 -  1) =     -8.57654  eV     1   --> A'             
     e(  2 -  2) =     -8.48117  eV     1   --> A'             
     e(  3 -  3) =     -8.38814  eV     1   --> A'             
     e(  4 -  4) =     -8.27996  eV     1   --> A'             
     e(  5 -  5) =     -1.18414  eV     1   --> A'             
     e(  6 -  6) =     -0.69639  eV     1   --> A'             
     e(  7 -  7) =      0.52960  eV     1   --> A'             
     e(  8 -  8) =      1.79563  eV     1   --> A'             
     e(  9 -  9) =      3.53772  eV     1   --> A'             
     e( 10 - 10) =      4.96656  eV     1   --> A'             
     e( 11 - 11) =      5.34838  eV     1   --> A''            
     e( 12 - 12) =      5.35851  eV     1   --> A'             
     e( 13 - 13) =      5.37619  eV     1   --> A''            
     e( 14 - 14) =      5.38619  eV     1   --> A'             
     e( 15 - 15) =      5.41037  eV     1   --> A''            
     e( 16 - 16) =      5.42046  eV     1   --> A'             
     e( 17 - 17) =      5.43923  eV     1   --> A''            
     e( 18 - 18) =      5.44918  eV     1   --> A'             
     e( 19 - 19) =      8.98033  eV     1   --> A'             
     e( 20 - 20) =     10.47486  eV     1   --> A'             
     e( 21 - 21) =     11.73446  eV     1   --> A'             
     e( 22 - 22) =     11.89404  eV     1   --> A'             
     e( 23 - 23) =     11.94971  eV     1   --> A'             
     e( 24 - 24) =     12.10681  eV     1   --> A'             
     e( 25 - 25) =     12.67734  eV     1   --> A''            
     e( 26 - 26) =     12.69963  eV     1   --> A'             
     e( 27 - 27) =     12.72280  eV     1   --> A''            
     e( 28 - 28) =     12.74515  eV     1   --> A'             
     e( 29 - 29) =     13.20696  eV     1   --> A''            
     e( 30 - 30) =     13.22991  eV     1   --> A'             
     e( 31 - 31) =     13.27254  eV     1   --> A''            
     e( 32 - 32) =     13.29552  eV     1   --> A'             
     e( 33 - 33) =     13.77813  eV     1   --> A'             
     e( 34 - 34) =     15.60546  eV     1   --> A''            
     e( 35 - 35) =     15.62586  eV     1   --> A'             
     e( 36 - 36) =     15.78090  eV     1   --> A'             
     e( 37 - 37) =     15.78272  eV     1   --> A''            
     e( 38 - 38) =     15.80322  eV     1   --> A'             
     e( 39 - 39) =     16.27721  eV     1   --> A'             
     e( 40 - 40) =     16.93101  eV     1   --> A''            
     e( 41 - 41) =     16.94811  eV     1   --> A'             
     e( 42 - 42) =     17.06190  eV     1   --> A'             
     e( 43 - 43) =     17.34022  eV     1   --> A''            
     e( 44 - 44) =     17.35738  eV     1   --> A'             
     e( 45 - 45) =     17.46757  eV     1   --> A''            
     e( 46 - 46) =     17.48539  eV     1   --> A'             
     e( 47 - 47) =     17.66744  eV     1   --> A''            
     e( 48 - 48) =     17.68556  eV     1   --> A'             
     e( 49 - 49) =     19.67491  eV     1   --> A'             
     e( 50 - 50) =     19.70069  eV     1   --> A'             
     e( 51 - 51) =     19.87430  eV     1   --> A'             
     e( 52 - 52) =     19.95721  eV     1   --> A'             
     e( 53 - 53) =     20.50092  eV     1   --> A'             
     e( 54 - 54) =     20.77111  eV     1   --> A'             
     e( 55 - 55) =     21.17385  eV     1   --> A''            
     e( 56 - 56) =     21.19347  eV     1   --> A'             
     e( 57 - 57) =     21.48848  eV     1   --> A''            
     e( 58 - 58) =     21.50736  eV     1   --> A'             
     e( 59 - 59) =     21.82107  eV     1   --> A'             
     e( 60 - 60) =     22.14704  eV     1   --> A''            
     e( 61 - 61) =     22.16710  eV     1   --> A'             
     e( 62 - 62) =     22.47225  eV     1   --> A'             
     e( 63 - 63) =     22.77564  eV     1   --> A''            
     e( 64 - 64) =     22.79467  eV     1   --> A'             
     e( 65 - 65) =     23.66691  eV     1   --> A'             
     e( 66 - 66) =     23.95337  eV     1   --> A'             
     e( 67 - 67) =     25.06041  eV     1   --> A'             
     e( 68 - 68) =     25.71401  eV     1   --> A''            
     e( 69 - 69) =     25.73318  eV     1   --> A'             
     e( 70 - 70) =     25.93120  eV     1   --> A'             

 **************************************************************************

 **************************************************************************

                    xk=(   0.01925,   0.01108,   0.00000  )

     point group C_1 (1)    
     there are  1 classes
     the character table:

       E    
A      1.00

     the symmetry operations in each class and the name of the first element:

     E        1
                                                                 

     Band symmetry, C_1 (1)     point group:

     e(  1 -  1) =     -8.57159  eV     1   --> A              
     e(  2 -  2) =     -8.47632  eV     1   --> A              
     e(  3 -  3) =     -8.38327  eV     1   --> A              
     e(  4 -  4) =     -8.27520  eV     1   --> A              
     e(  5 -  5) =     -1.17829  eV     1   --> A              
     e(  6 -  6) =     -0.69094  eV     1   --> A              
     e(  7 -  7) =      0.53483  eV     1   --> A              
     e(  8 -  8) =      1.79960  eV     1   --> A              
     e(  9 -  9) =      3.54059  eV     1   --> A              
     e( 10 - 10) =      4.96775  eV     1   --> A              
     e( 11 - 11) =      5.32256  eV     1   --> A              
     e( 12 - 12) =      5.34360  eV     1   --> A              
     e( 13 - 13) =      5.34954  eV     1   --> A              
     e( 14 - 14) =      5.37148  eV     1   --> A              
     e( 15 - 15) =      5.38607  eV     1   --> A              
     e( 16 - 16) =      5.40662  eV     1   --> A              
     e( 17 - 17) =      5.41148  eV     1   --> A              
     e( 18 - 18) =      5.43550  eV     1   --> A              
     e( 19 - 19) =      8.99035  eV     1   --> A              
     e( 20 - 20) =     10.47775  eV     1   --> A              
     e( 21 - 21) =     11.76326  eV     1   --> A              
     e( 22 - 22) =     11.92268  eV     1   --> A              
     e( 23 - 23) =     11.97512  eV     1   --> A              
     e( 24 - 24) =     12.13253  eV     1   --> A              
     e( 25 - 25) =     12.65845  eV     1   --> A              
     e( 26 - 26) =     12.68837  eV     1   --> A              
     e( 27 - 27) =     12.70152  eV     1   --> A              
     e( 28 - 28) =     12.74230  eV     1   --> A              
     e( 29 - 29) =     13.20303  eV     1   --> A              
     e( 30 - 30) =     13.23254  eV     1   --> A              
     e( 31 - 31) =     13.27123  eV     1   --> A              
     e( 32 - 32) =     13.29985  eV     1   --> A              
     e( 33 - 33) =     13.79730  eV     1   --> A              
     e( 34 - 34) =     15.53361  eV     1   --> A              
     e( 35 - 35) =     15.57691  eV     1   --> A              
     e( 36 - 36) =     15.73796  eV     1   --> A              
     e( 37 - 37) =     15.77614  eV     1   --> A              
     e( 38 - 38) =     15.80439  eV     1   --> A              
     e( 39 - 39) =     16.20465  eV     1   --> A              
     e( 40 - 40) =     16.89829  eV     1   --> A              
     e( 41 - 41) =     16.92024  eV     1   --> A              
     e( 42 - 42) =     17.01342  eV     1   --> A              
     e( 43 - 43) =     17.34127  eV     1   --> A              
     e( 44 - 44) =     17.41579  eV     1   --> A              
     e( 45 - 45) =     17.49325  eV     1   --> A              
     e( 46 - 46) =     17.50903  eV     1   --> A              
     e( 47 - 47) =     17.70685  eV     1   --> A              
     e( 48 - 48) =     17.77808  eV     1   --> A              
     e( 49 - 49) =     19.71295  eV     1   --> A              
     e( 50 - 50) =     19.72336  eV     1   --> A              
     e( 51 - 51) =     19.91280  eV     1   --> A              
     e( 52 - 52) =     20.00214  eV     1   --> A              
     e( 53 - 53) =     20.52070  eV     1   --> A              
     e( 54 - 54) =     20.80846  eV     1   --> A              
     e( 55 - 55) =     21.15568  eV     1   --> A              
     e( 56 - 56) =     21.19172  eV     1   --> A              
     e( 57 - 57) =     21.49534  eV     1   --> A              
     e( 58 - 58) =     21.52246  eV     1   --> A              
     e( 59 - 59) =     21.87126  eV     1   --> A              
     e( 60 - 60) =     22.06829  eV     1   --> A              
     e( 61 - 61) =     22.13046  eV     1   --> A              
     e( 62 - 62) =     22.55208  eV     1   --> A              
     e( 63 - 63) =     22.72615  eV     1   --> A              
     e( 64 - 64) =     22.79931  eV     1   --> A              
     e( 65 - 65) =     23.68649  eV     1   --> A              
     e( 66 - 66) =     24.06247  eV     1   --> A              
     e( 67 - 67) =     25.02065  eV     1   --> A              
     e( 68 - 68) =     25.66843  eV     1   --> A              
     e( 69 - 69) =     25.69918  eV     1   --> A              
     e( 70 - 70) =     25.97457  eV     1   --> A              

 **************************************************************************

 **************************************************************************

                    xk=(   0.03850,   0.02217,   0.00000  )

     Band symmetry, C_1 (1)     point group:

     e(  1 -  1) =     -8.55676  eV     1   --> A              
     e(  2 -  2) =     -8.46177  eV     1   --> A              
     e(  3 -  3) =     -8.36868  eV     1   --> A              
     e(  4 -  4) =     -8.26095  eV     1   --> A              
     e(  5 -  5) =     -1.16078  eV     1   --> A              
     e(  6 -  6) =     -0.67462  eV     1   --> A              
     e(  7 -  7) =      0.55048  eV     1   --> A              
     e(  8 -  8) =      1.81145  eV     1   --> A              
     e(  9 -  9) =      3.54885  eV     1   --> A              
     e( 10 - 10) =      4.97006  eV     1   --> A              
     e( 11 - 11) =      5.23044  eV     1   --> A              
     e( 12 - 12) =      5.25382  eV     1   --> A              
     e( 13 - 13) =      5.29079  eV     1   --> A              
     e( 14 - 14) =      5.30655  eV     1   --> A              
     e( 15 - 15) =      5.32423  eV     1   --> A              
     e( 16 - 16) =      5.35181  eV     1   --> A              
     e( 17 - 17) =      5.38342  eV     1   --> A              
     e( 18 - 18) =      5.41312  eV     1   --> A              
     e( 19 - 19) =      9.01918  eV     1   --> A              
     e( 20 - 20) =     10.48493  eV     1   --> A              
     e( 21 - 21) =     11.84416  eV     1   --> A              
     e( 22 - 22) =     12.00268  eV     1   --> A              
     e( 23 - 23) =     12.04773  eV     1   --> A              
     e( 24 - 24) =     12.20532  eV     1   --> A              
     e( 25 - 25) =     12.56764  eV     1   --> A              
     e( 26 - 26) =     12.57422  eV     1   --> A              
     e( 27 - 27) =     12.72976  eV     1   --> A              
     e( 28 - 28) =     12.77461  eV     1   --> A              
     e( 29 - 29) =     13.15755  eV     1   --> A              
     e( 30 - 30) =     13.22591  eV     1   --> A              
     e( 31 - 31) =     13.28615  eV     1   --> A              
     e( 32 - 32) =     13.34958  eV     1   --> A              
     e( 33 - 33) =     13.84126  eV     1   --> A              
     e( 34 - 34) =     15.34649  eV     1   --> A              
     e( 35 - 35) =     15.44899  eV     1   --> A              
     e( 36 - 36) =     15.64123  eV     1   --> A              
     e( 37 - 37) =     15.72576  eV     1   --> A              
     e( 38 - 38) =     15.80746  eV     1   --> A              
     e( 39 - 39) =     16.02012  eV     1   --> A              
     e( 40 - 40) =     16.78500  eV     1   --> A              
     e( 41 - 41) =     16.87611  eV     1   --> A              
     e( 42 - 42) =     16.90471  eV     1   --> A              
     e( 43 - 43) =     17.32693  eV     1   --> A              
     e( 44 - 44) =     17.55737  eV     1   --> A              
     e( 45 - 45) =     17.56554  eV     1   --> A              
     e( 46 - 46) =     17.58678  eV     1   --> A              
     e( 47 - 47) =     17.79343  eV     1   --> A              
     e( 48 - 48) =     18.01309  eV     1   --> A              
     e( 49 - 49) =     19.78605  eV     1   --> A              
     e( 50 - 50) =     19.82258  eV     1   --> A              
     e( 51 - 51) =     20.02577  eV     1   --> A              
     e( 52 - 52) =     20.12719  eV     1   --> A              
     e( 53 - 53) =     20.57682  eV     1   --> A              
     e( 54 - 54) =     20.91036  eV     1   --> A              
     e( 55 - 55) =     21.08926  eV     1   --> A              
     e( 56 - 56) =     21.21047  eV     1   --> A              
     e( 57 - 57) =     21.49601  eV     1   --> A              
     e( 58 - 58) =     21.58917  eV     1   --> A              
     e( 59 - 59) =     21.90259  eV     1   --> A              
     e( 60 - 60) =     22.00920  eV     1   --> A              
     e( 61 - 61) =     22.06037  eV     1   --> A              
     e( 62 - 62) =     22.60932  eV     1   --> A              
     e( 63 - 63) =     22.69126  eV     1   --> A              
     e( 64 - 64) =     22.85718  eV     1   --> A              
     e( 65 - 65) =     23.74092  eV     1   --> A              
     e( 66 - 66) =     24.32392  eV     1   --> A              
     e( 67 - 67) =     24.89148  eV     1   --> A              
     e( 68 - 68) =     25.53518  eV     1   --> A              
     e( 69 - 69) =     25.65478  eV     1   --> A              
     e( 70 - 70) =     26.08877  eV     1   --> A              

 **************************************************************************

 **************************************************************************

                    xk=(   0.05775,   0.03325,   0.00000  )

     Band symmetry, C_1 (1)     point group:

     e(  1 -  1) =     -8.53212  eV     1   --> A              
     e(  2 -  2) =     -8.43760  eV     1   --> A              
     e(  3 -  3) =     -8.34444  eV     1   --> A              
     e(  4 -  4) =     -8.23728  eV     1   --> A              
     e(  5 -  5) =     -1.13166  eV     1   --> A              
     e(  6 -  6) =     -0.64755  eV     1   --> A              
     e(  7 -  7) =      0.57652  eV     1   --> A              
     e(  8 -  8) =      1.83094  eV     1   --> A              
     e(  9 -  9) =      3.56141  eV     1   --> A              
     e( 10 - 10) =      4.96176  eV     1   --> A              
     e( 11 - 11) =      5.09615  eV     1   --> A              
     e( 12 - 12) =      5.10200  eV     1   --> A              
     e( 13 - 13) =      5.14660  eV     1   --> A              
     e( 14 - 14) =      5.14894  eV     1   --> A              
     e( 15 - 15) =      5.28383  eV     1   --> A              
     e( 16 - 16) =      5.31324  eV     1   --> A              
     e( 17 - 17) =      5.34523  eV     1   --> A              
     e( 18 - 18) =      5.37610  eV     1   --> A              
     e( 19 - 19) =      9.06372  eV     1   --> A              
     e( 20 - 20) =     10.49280  eV     1   --> A              
     e( 21 - 21) =     11.96016  eV     1   --> A              
     e( 22 - 22) =     12.11451  eV     1   --> A              
     e( 23 - 23) =     12.15658  eV     1   --> A              
     e( 24 - 24) =     12.31234  eV     1   --> A              
     e( 25 - 25) =     12.40570  eV     1   --> A              
     e( 26 - 26) =     12.43296  eV     1   --> A              
     e( 27 - 27) =     12.78505  eV     1   --> A              
     e( 28 - 28) =     12.82850  eV     1   --> A              
     e( 29 - 29) =     13.08497  eV     1   --> A              
     e( 30 - 30) =     13.16044  eV     1   --> A              
     e( 31 - 31) =     13.37737  eV     1   --> A              
     e( 32 - 32) =     13.44056  eV     1   --> A              
     e( 33 - 33) =     13.88393  eV     1   --> A              
     e( 34 - 34) =     15.11213  eV     1   --> A              
     e( 35 - 35) =     15.25935  eV     1   --> A              
     e( 36 - 36) =     15.51847  eV     1   --> A              
     e( 37 - 37) =     15.62545  eV     1   --> A              
     e( 38 - 38) =     15.77701  eV     1   --> A              
     e( 39 - 39) =     15.81061  eV     1   --> A              
     e( 40 - 40) =     16.62087  eV     1   --> A              
     e( 41 - 41) =     16.78566  eV     1   --> A              
     e( 42 - 42) =     16.81576  eV     1   --> A              
     e( 43 - 43) =     17.28970  eV     1   --> A              
     e( 44 - 44) =     17.65359  eV     1   --> A              
     e( 45 - 45) =     17.72141  eV     1   --> A              
     e( 46 - 46) =     17.72404  eV     1   --> A              
     e( 47 - 47) =     17.90157  eV     1   --> A              
     e( 48 - 48) =     18.32558  eV     1   --> A              
     e( 49 - 49) =     19.87427  eV     1   --> A              
     e( 50 - 50) =     19.98994  eV     1   --> A              
     e( 51 - 51) =     20.20493  eV     1   --> A              
     e( 52 - 52) =     20.30157  eV     1   --> A              
     e( 53 - 53) =     20.65868  eV     1   --> A              
     e( 54 - 54) =     21.02150  eV     1   --> A              
     e( 55 - 55) =     21.04665  eV     1   --> A              
     e( 56 - 56) =     21.21587  eV     1   --> A              
     e( 57 - 57) =     21.51886  eV     1   --> A              
     e( 58 - 58) =     21.68925  eV     1   --> A              
     e( 59 - 59) =     21.74987  eV     1   --> A              
     e( 60 - 60) =     21.96637  eV     1   --> A              
     e( 61 - 61) =     22.21662  eV     1   --> A              
     e( 62 - 62) =     22.54283  eV     1   --> A              
     e( 63 - 63) =     22.79267  eV     1   --> A              
     e( 64 - 64) =     22.98900  eV     1   --> A              
     e( 65 - 65) =     23.81680  eV     1   --> A              
     e( 66 - 66) =     24.65100  eV     1   --> A              
     e( 67 - 67) =     24.67932  eV     1   --> A              
     e( 68 - 68) =     25.34559  eV     1   --> A              
     e( 69 - 69) =     25.65394  eV     1   --> A              
     e( 70 - 70) =     26.22638  eV     1   --> A              

 **************************************************************************

 **************************************************************************

                    xk=(   0.07701,   0.04434,   0.00000  )

     Band symmetry, C_1 (1)     point group:

     e(  1 -  1) =     -8.49775  eV     1   --> A              
     e(  2 -  2) =     -8.40390  eV     1   --> A              
     e(  3 -  3) =     -8.31065  eV     1   --> A              
     e(  4 -  4) =     -8.20430  eV     1   --> A              
     e(  5 -  5) =     -1.09101  eV     1   --> A              
     e(  6 -  6) =     -0.60989  eV     1   --> A              
     e(  7 -  7) =      0.61283  eV     1   --> A              
     e(  8 -  8) =      1.85761  eV     1   --> A              
     e(  9 -  9) =      3.57591  eV     1   --> A              
     e( 10 - 10) =      4.84685  eV     1   --> A              
     e( 11 - 11) =      4.90456  eV     1   --> A              
     e( 12 - 12) =      4.93768  eV     1   --> A              
     e( 13 - 13) =      4.96473  eV     1   --> A              
     e( 14 - 14) =      5.02602  eV     1   --> A              
     e( 15 - 15) =      5.22943  eV     1   --> A              
     e( 16 - 16) =      5.26038  eV     1   --> A              
     e( 17 - 17) =      5.29134  eV     1   --> A              
     e( 18 - 18) =      5.32384  eV     1   --> A              
     e( 19 - 19) =      9.12048  eV     1   --> A              
     e( 20 - 20) =     10.49746  eV     1   --> A              
     e( 21 - 21) =     12.06721  eV     1   --> A              
     e( 22 - 22) =     12.15090  eV     1   --> A              
     e( 23 - 23) =     12.27656  eV     1   --> A              
     e( 24 - 24) =     12.28380  eV     1   --> A              
     e( 25 - 25) =     12.31014  eV     1   --> A              
     e( 26 - 26) =     12.43356  eV     1   --> A              
     e( 27 - 27) =     12.85634  eV     1   --> A              
     e( 28 - 28) =     12.89152  eV     1   --> A              
     e( 29 - 29) =     12.99757  eV     1   --> A              
     e( 30 - 30) =     13.08180  eV     1   --> A              
     e( 31 - 31) =     13.51587  eV     1   --> A              
     e( 32 - 32) =     13.57302  eV     1   --> A              
     e( 33 - 33) =     13.90891  eV     1   --> A              
     e( 34 - 34) =     14.86481  eV     1   --> A              
     e( 35 - 35) =     15.07146  eV     1   --> A              
     e( 36 - 36) =     15.37820  eV     1   --> A              
     e( 37 - 37) =     15.48414  eV     1   --> A              
     e( 38 - 38) =     15.51218  eV     1   --> A              
     e( 39 - 39) =     15.81657  eV     1   --> A              
     e( 40 - 40) =     16.42965  eV     1   --> A              
     e( 41 - 41) =     16.68135  eV     1   --> A              
     e( 42 - 42) =     16.73486  eV     1   --> A              
     e( 43 - 43) =     17.22576  eV     1   --> A              
     e( 44 - 44) =     17.73273  eV     1   --> A              
     e( 45 - 45) =     17.88909  eV     1   --> A              
     e( 46 - 46) =     17.89042  eV     1   --> A              
     e( 47 - 47) =     18.02674  eV     1   --> A              
     e( 48 - 48) =     18.68009  eV     1   --> A              
     e( 49 - 49) =     19.96699  eV     1   --> A              
     e( 50 - 50) =     20.18669  eV     1   --> A              
     e( 51 - 51) =     20.43220  eV     1   --> A              
     e( 52 - 52) =     20.46022  eV     1   --> A              
     e( 53 - 53) =     20.75477  eV     1   --> A              
     e( 54 - 54) =     20.98892  eV     1   --> A              
     e( 55 - 55) =     21.17919  eV     1   --> A              
     e( 56 - 56) =     21.21050  eV     1   --> A              
     e( 57 - 57) =     21.56538  eV     1   --> A              
     e( 58 - 58) =     21.66201  eV     1   --> A              
     e( 59 - 59) =     21.81486  eV     1   --> A              
     e( 60 - 60) =     21.91886  eV     1   --> A              
     e( 61 - 61) =     22.47988  eV     1   --> A              
     e( 62 - 62) =     22.55029  eV     1   --> A              
     e( 63 - 63) =     22.85800  eV     1   --> A              
     e( 64 - 64) =     23.20123  eV     1   --> A              
     e( 65 - 65) =     23.88709  eV     1   --> A              
     e( 66 - 66) =     24.42671  eV     1   --> A              
     e( 67 - 67) =     24.99734  eV     1   --> A              
     e( 68 - 68) =     25.14494  eV     1   --> A              
     e( 69 - 69) =     25.69278  eV     1   --> A              
     e( 70 - 70) =     26.15247  eV     1   --> A              

 **************************************************************************

 **************************************************************************

                    xk=(   0.09626,   0.05542,   0.00000  )

     Band symmetry, C_1 (1)     point group:

     e(  1 -  1) =     -8.45382  eV     1   --> A              
     e(  2 -  2) =     -8.36082  eV     1   --> A              
     e(  3 -  3) =     -8.26747  eV     1   --> A              
     e(  4 -  4) =     -8.16216  eV     1   --> A              
     e(  5 -  5) =     -1.03897  eV     1   --> A              
     e(  6 -  6) =     -0.56191  eV     1   --> A              
     e(  7 -  7) =      0.65926  eV     1   --> A              
     e(  8 -  8) =      1.89078  eV     1   --> A              
     e(  9 -  9) =      3.58746  eV     1   --> A              
     e( 10 - 10) =      4.62527  eV     1   --> A              
     e( 11 - 11) =      4.67256  eV     1   --> A              
     e( 12 - 12) =      4.69190  eV     1   --> A              
     e( 13 - 13) =      4.75543  eV     1   --> A              
     e( 14 - 14) =      5.02875  eV     1   --> A              
     e( 15 - 15) =      5.15966  eV     1   --> A              
     e( 16 - 16) =      5.19208  eV     1   --> A              
     e( 17 - 17) =      5.22161  eV     1   --> A              
     e( 18 - 18) =      5.25605  eV     1   --> A              
     e( 19 - 19) =      9.18656  eV     1   --> A              
     e( 20 - 20) =     10.49589  eV     1   --> A              
     e( 21 - 21) =     11.94721  eV     1   --> A              
     e( 22 - 22) =     11.99568  eV     1   --> A              
     e( 23 - 23) =     12.29677  eV     1   --> A              
     e( 24 - 24) =     12.40566  eV     1   --> A              
     e( 25 - 25) =     12.40993  eV     1   --> A              
     e( 26 - 26) =     12.54195  eV     1   --> A              
     e( 27 - 27) =     12.91181  eV     1   --> A              
     e( 28 - 28) =     12.91808  eV     1   --> A              
     e( 29 - 29) =     12.93049  eV     1   --> A              
     e( 30 - 30) =     13.00909  eV     1   --> A              
     e( 31 - 31) =     13.70333  eV     1   --> A              
     e( 32 - 32) =     13.73885  eV     1   --> A              
     e( 33 - 33) =     13.92956  eV     1   --> A              
     e( 34 - 34) =     14.63336  eV     1   --> A              
     e( 35 - 35) =     14.91424  eV     1   --> A              
     e( 36 - 36) =     15.24878  eV     1   --> A              
     e( 37 - 37) =     15.25579  eV     1   --> A              
     e( 38 - 38) =     15.33900  eV     1   --> A              
     e( 39 - 39) =     15.82189  eV     1   --> A              
     e( 40 - 40) =     16.23045  eV     1   --> A              
     e( 41 - 41) =     16.59785  eV     1   --> A              
     e( 42 - 42) =     16.63208  eV     1   --> A              
     e( 43 - 43) =     17.13565  eV     1   --> A              
     e( 44 - 44) =     17.79140  eV     1   --> A              
     e( 45 - 45) =     18.02711  eV     1   --> A              
     e( 46 - 46) =     18.04805  eV     1   --> A              
     e( 47 - 47) =     18.20155  eV     1   --> A              
     e( 48 - 48) =     19.05352  eV     1   --> A              
     e( 49 - 49) =     20.04071  eV     1   --> A              
     e( 50 - 50) =     20.35469  eV     1   --> A              
     e( 51 - 51) =     20.50576  eV     1   --> A              
     e( 52 - 52) =     20.66310  eV     1   --> A              
     e( 53 - 53) =     20.87777  eV     1   --> A              
     e( 54 - 54) =     21.04885  eV     1   --> A              
     e( 55 - 55) =     21.24359  eV     1   --> A              
     e( 56 - 56) =     21.31040  eV     1   --> A              
     e( 57 - 57) =     21.62003  eV     1   --> A              
     e( 58 - 58) =     21.66052  eV     1   --> A              
     e( 59 - 59) =     21.95554  eV     1   --> A              
     e( 60 - 60) =     21.97160  eV     1   --> A              
     e( 61 - 61) =     22.63570  eV     1   --> A              
     e( 62 - 62) =     22.78039  eV     1   --> A              
     e( 63 - 63) =     22.94420  eV     1   --> A              
     e( 64 - 64) =     23.46512  eV     1   --> A              
     e( 65 - 65) =     23.89699  eV     1   --> A              
     e( 66 - 66) =     24.19170  eV     1   --> A              
     e( 67 - 67) =     24.99090  eV     1   --> A              
     e( 68 - 68) =     25.33028  eV     1   --> A              
     e( 69 - 69) =     25.75252  eV     1   --> A              
     e( 70 - 70) =     26.06850  eV     1   --> A              

 **************************************************************************

 **************************************************************************

                    xk=(   0.11551,   0.06651,   0.00000  )

     Band symmetry, C_1 (1)     point group:

     e(  1 -  1) =     -8.40050  eV     1   --> A              
     e(  2 -  2) =     -8.30856  eV     1   --> A              
     e(  3 -  3) =     -8.21511  eV     1   --> A              
     e(  4 -  4) =     -8.11107  eV     1   --> A              
     e(  5 -  5) =     -0.97572  eV     1   --> A              
     e(  6 -  6) =     -0.50399  eV     1   --> A              
     e(  7 -  7) =      0.71562  eV     1   --> A              
     e(  8 -  8) =      1.92935  eV     1   --> A              
     e(  9 -  9) =      3.58567  eV     1   --> A              
     e( 10 - 10) =      4.36960  eV     1   --> A              
     e( 11 - 11) =      4.41643  eV     1   --> A              
     e( 12 - 12) =      4.41976  eV     1   --> A              
     e( 13 - 13) =      4.54050  eV     1   --> A              
     e( 14 - 14) =      5.03471  eV     1   --> A              
     e( 15 - 15) =      5.07954  eV     1   --> A              
     e( 16 - 16) =      5.10803  eV     1   --> A              
     e( 17 - 17) =      5.13733  eV     1   --> A              
     e( 18 - 18) =      5.17252  eV     1   --> A              
     e( 19 - 19) =      9.26000  eV     1   --> A              
     e( 20 - 20) =     10.48607  eV     1   --> A              
     e( 21 - 21) =     11.71791  eV     1   --> A              
     e( 22 - 22) =     11.78923  eV     1   --> A              
     e( 23 - 23) =     12.41091  eV     1   --> A              
     e( 24 - 24) =     12.48892  eV     1   --> A              
     e( 25 - 25) =     12.52114  eV     1   --> A              
     e( 26 - 26) =     12.59847  eV     1   --> A              
     e( 27 - 27) =     12.85940  eV     1   --> A              
     e( 28 - 28) =     12.87635  eV     1   --> A              
     e( 29 - 29) =     12.94234  eV     1   --> A              
     e( 30 - 30) =     12.97679  eV     1   --> A              
     e( 31 - 31) =     13.89752  eV     1   --> A              
     e( 32 - 32) =     13.93353  eV     1   --> A              
     e( 33 - 33) =     13.98468  eV     1   --> A              
     e( 34 - 34) =     14.43066  eV     1   --> A              
     e( 35 - 35) =     14.79889  eV     1   --> A              
     e( 36 - 36) =     15.05534  eV     1   --> A              
     e( 37 - 37) =     15.12558  eV     1   --> A              
     e( 38 - 38) =     15.28252  eV     1   --> A              
     e( 39 - 39) =     15.82757  eV     1   --> A              
     e( 40 - 40) =     16.04097  eV     1   --> A              
     e( 41 - 41) =     16.51032  eV     1   --> A              
     e( 42 - 42) =     16.53118  eV     1   --> A              
     e( 43 - 43) =     17.02320  eV     1   --> A              
     e( 44 - 44) =     17.82324  eV     1   --> A              
     e( 45 - 45) =     18.11123  eV     1   --> A              
     e( 46 - 46) =     18.19551  eV     1   --> A              
     e( 47 - 47) =     18.42204  eV     1   --> A              
     e( 48 - 48) =     19.42034  eV     1   --> A              
     e( 49 - 49) =     20.08071  eV     1   --> A              
     e( 50 - 50) =     20.43279  eV     1   --> A              
     e( 51 - 51) =     20.45443  eV     1   --> A              
     e( 52 - 52) =     20.80719  eV     1   --> A              
     e( 53 - 53) =     21.02183  eV     1   --> A              
     e( 54 - 54) =     21.25338  eV     1   --> A              
     e( 55 - 55) =     21.41015  eV     1   --> A              
     e( 56 - 56) =     21.48122  eV     1   --> A              
     e( 57 - 57) =     21.67149  eV     1   --> A              
     e( 58 - 58) =     21.68819  eV     1   --> A              
     e( 59 - 59) =     22.09611  eV     1   --> A              
     e( 60 - 60) =     22.11403  eV     1   --> A              
     e( 61 - 61) =     22.77498  eV     1   --> A              
     e( 62 - 62) =     23.07316  eV     1   --> A              
     e( 63 - 63) =     23.13019  eV     1   --> A              
     e( 64 - 64) =     23.76610  eV     1   --> A              
     e( 65 - 65) =     23.80942  eV     1   --> A              
     e( 66 - 66) =     24.02396  eV     1   --> A              
     e( 67 - 67) =     24.94580  eV     1   --> A              
     e( 68 - 68) =     25.59538  eV     1   --> A              
     e( 69 - 69) =     25.81506  eV     1   --> A              
     e( 70 - 70) =     26.07257  eV     1   --> A              

 **************************************************************************

 **************************************************************************

                    xk=(   0.13476,   0.07759,   0.00000  )

     Band symmetry, C_1 (1)     point group:

     e(  1 -  1) =     -8.33805  eV     1   --> A              
     e(  2 -  2) =     -8.24735  eV     1   --> A              
     e(  3 -  3) =     -8.15384  eV     1   --> A              
     e(  4 -  4) =     -8.05131  eV     1   --> A              
     e(  5 -  5) =     -0.90150  eV     1   --> A              
     e(  6 -  6) =     -0.43667  eV     1   --> A              
     e(  7 -  7) =      0.78165  eV     1   --> A              
     e(  8 -  8) =      1.97161  eV     1   --> A              
     e(  9 -  9) =      3.54891  eV     1   --> A              
     e( 10 - 10) =      4.09564  eV     1   --> A              
     e( 11 - 11) =      4.12936  eV     1   --> A              
     e( 12 - 12) =      4.14653  eV     1   --> A              
     e( 13 - 13) =      4.34980  eV     1   --> A              
     e( 14 - 14) =      4.96176  eV     1   --> A              
     e( 15 - 15) =      5.00807  eV     1   --> A              
     e( 16 - 16) =      5.02151  eV     1   --> A              
     e( 17 - 17) =      5.07315  eV     1   --> A              
     e( 18 - 18) =      5.08006  eV     1   --> A              
     e( 19 - 19) =      9.33960  eV     1   --> A              
     e( 20 - 20) =     10.46664  eV     1   --> A              
     e( 21 - 21) =     11.47975  eV     1   --> A              
     e( 22 - 22) =     11.56239  eV     1   --> A              
     e( 23 - 23) =     12.49297  eV     1   --> A              
     e( 24 - 24) =     12.51388  eV     1   --> A              
     e( 25 - 25) =     12.57659  eV     1   --> A              
     e( 26 - 26) =     12.57856  eV     1   --> A              
     e( 27 - 27) =     12.77067  eV     1   --> A              
     e( 28 - 28) =     12.87865  eV     1   --> A              
     e( 29 - 29) =     12.87991  eV     1   --> A              
     e( 30 - 30) =     13.01714  eV     1   --> A              
     e( 31 - 31) =     13.95242  eV     1   --> A              
     e( 32 - 32) =     14.05765  eV     1   --> A              
     e( 33 - 33) =     14.18192  eV     1   --> A              
     e( 34 - 34) =     14.23581  eV     1   --> A              
     e( 35 - 35) =     14.75365  eV     1   --> A              
     e( 36 - 36) =     15.00380  eV     1   --> A              
     e( 37 - 37) =     15.06302  eV     1   --> A              
     e( 38 - 38) =     15.33961  eV     1   --> A              
     e( 39 - 39) =     15.84385  eV     1   --> A              
     e( 40 - 40) =     15.87915  eV     1   --> A              
     e( 41 - 41) =     16.38014  eV     1   --> A              
     e( 42 - 42) =     16.47662  eV     1   --> A              
     e( 43 - 43) =     16.89644  eV     1   --> A              
     e( 44 - 44) =     17.82467  eV     1   --> A              
     e( 45 - 45) =     18.15885  eV     1   --> A              
     e( 46 - 46) =     18.33436  eV     1   --> A              
     e( 47 - 47) =     18.64539  eV     1   --> A              
     e( 48 - 48) =     19.72636  eV     1   --> A              
     e( 49 - 49) =     20.08891  eV     1   --> A              
     e( 50 - 50) =     20.43993  eV     1   --> A              
     e( 51 - 51) =     20.44284  eV     1   --> A              
     e( 52 - 52) =     20.84548  eV     1   --> A              
     e( 53 - 53) =     21.18950  eV     1   --> A              
     e( 54 - 54) =     21.55105  eV     1   --> A              
     e( 55 - 55) =     21.62846  eV     1   --> A              
     e( 56 - 56) =     21.69846  eV     1   --> A              
     e( 57 - 57) =     21.75416  eV     1   --> A              
     e( 58 - 58) =     21.75649  eV     1   --> A              
     e( 59 - 59) =     22.21386  eV     1   --> A              
     e( 60 - 60) =     22.25908  eV     1   --> A              
     e( 61 - 61) =     22.99368  eV     1   --> A              
     e( 62 - 62) =     23.21989  eV     1   --> A              
     e( 63 - 63) =     23.44652  eV     1   --> A              
     e( 64 - 64) =     23.78822  eV     1   --> A              
     e( 65 - 65) =     23.92360  eV     1   --> A              
     e( 66 - 66) =     24.09166  eV     1   --> A              
     e( 67 - 67) =     25.01326  eV     1   --> A              
     e( 68 - 68) =     25.72347  eV     1   --> A              
     e( 69 - 69) =     25.85355  eV     1   --> A              
     e( 70 - 70) =     26.09144  eV     1   --> A              

 **************************************************************************

 **************************************************************************

                    xk=(   0.15401,   0.08868,   0.00000  )

     Band symmetry, C_1 (1)     point group:

     e(  1 -  1) =     -8.26675  eV     1   --> A              
     e(  2 -  2) =     -8.17752  eV     1   --> A              
     e(  3 -  3) =     -8.08396  eV     1   --> A              
     e(  4 -  4) =     -7.98321  eV     1   --> A              
     e(  5 -  5) =     -0.81666  eV     1   --> A              
     e(  6 -  6) =     -0.36069  eV     1   --> A              
     e(  7 -  7) =      0.85701  eV     1   --> A              
     e(  8 -  8) =      2.01473  eV     1   --> A              
     e(  9 -  9) =      3.44497  eV     1   --> A              
     e( 10 - 10) =      3.81219  eV     1   --> A              
     e( 11 - 11) =      3.82843  eV     1   --> A              
     e( 12 - 12) =      3.87159  eV     1   --> A              
     e( 13 - 13) =      4.22209  eV     1   --> A              
     e( 14 - 14) =      4.84334  eV     1   --> A              
     e( 15 - 15) =      4.89234  eV     1   --> A              
     e( 16 - 16) =      4.90638  eV     1   --> A              
     e( 17 - 17) =      4.95802  eV     1   --> A              
     e( 18 - 18) =      5.09353  eV     1   --> A              
     e( 19 - 19) =      9.42452  eV     1   --> A              
     e( 20 - 20) =     10.43662  eV     1   --> A              
     e( 21 - 21) =     11.23822  eV     1   --> A              
     e( 22 - 22) =     11.32753  eV     1   --> A              
     e( 23 - 23) =     12.40511  eV     1   --> A              
     e( 24 - 24) =     12.43378  eV     1   --> A              
     e( 25 - 25) =     12.51648  eV     1   --> A              
     e( 26 - 26) =     12.55149  eV     1   --> A              
     e( 27 - 27) =     12.78936  eV     1   --> A              
     e( 28 - 28) =     12.80961  eV     1   --> A              
     e( 29 - 29) =     12.96020  eV     1   --> A              
     e( 30 - 30) =     13.10709  eV     1   --> A              
     e( 31 - 31) =     13.83410  eV     1   --> A              
     e( 32 - 32) =     14.02967  eV     1   --> A              
     e( 33 - 33) =     14.05363  eV     1   --> A              
     e( 34 - 34) =     14.40661  eV     1   --> A              
     e( 35 - 35) =     14.79971  eV     1   --> A              
     e( 36 - 36) =     15.11529  eV     1   --> A              
     e( 37 - 37) =     15.15128  eV     1   --> A              
     e( 38 - 38) =     15.47732  eV     1   --> A              
     e( 39 - 39) =     15.75834  eV     1   --> A              
     e( 40 - 40) =     15.90128  eV     1   --> A              
     e( 41 - 41) =     16.27140  eV     1   --> A              
     e( 42 - 42) =     16.43860  eV     1   --> A              
     e( 43 - 43) =     16.77164  eV     1   --> A              
     e( 44 - 44) =     17.79479  eV     1   --> A              
     e( 45 - 45) =     18.17419  eV     1   --> A              
     e( 46 - 46) =     18.46740  eV     1   --> A              
     e( 47 - 47) =     18.84822  eV     1   --> A              
     e( 48 - 48) =     19.88069  eV     1   --> A              
     e( 49 - 49) =     20.08249  eV     1   --> A              
     e( 50 - 50) =     20.42938  eV     1   --> A              
     e( 51 - 51) =     20.59790  eV     1   --> A              
     e( 52 - 52) =     20.84559  eV     1   --> A              
     e( 53 - 53) =     21.39193  eV     1   --> A              
     e( 54 - 54) =     21.63015  eV     1   --> A              
     e( 55 - 55) =     21.67038  eV     1   --> A              
     e( 56 - 56) =     21.95997  eV     1   --> A              
     e( 57 - 57) =     21.97678  eV     1   --> A              
     e( 58 - 58) =     22.12527  eV     1   --> A              
     e( 59 - 59) =     22.27851  eV     1   --> A              
     e( 60 - 60) =     22.33356  eV     1   --> A              
     e( 61 - 61) =     23.18865  eV     1   --> A              
     e( 62 - 62) =     23.34952  eV     1   --> A              
     e( 63 - 63) =     23.70149  eV     1   --> A              
     e( 64 - 64) =     23.84810  eV     1   --> A              
     e( 65 - 65) =     24.15815  eV     1   --> A              
     e( 66 - 66) =     24.42742  eV     1   --> A              
     e( 67 - 67) =     25.12514  eV     1   --> A              
     e( 68 - 68) =     25.78307  eV     1   --> A              
     e( 69 - 69) =     25.82894  eV     1   --> A              
     e( 70 - 70) =     26.03125  eV     1   --> A              

 **************************************************************************

 **************************************************************************

                    xk=(   0.17326,   0.09976,   0.00000  )

     Band symmetry, C_1 (1)     point group:

     e(  1 -  1) =     -8.18698  eV     1   --> A              
     e(  2 -  2) =     -8.09941  eV     1   --> A              
     e(  3 -  3) =     -8.00588  eV     1   --> A              
     e(  4 -  4) =     -7.90714  eV     1   --> A              
     e(  5 -  5) =     -0.72164  eV     1   --> A              
     e(  6 -  6) =     -0.27705  eV     1   --> A              
     e(  7 -  7) =      0.94125  eV     1   --> A              
     e(  8 -  8) =      2.05383  eV     1   --> A              
     e(  9 -  9) =      3.26242  eV     1   --> A              
     e( 10 - 10) =      3.52233  eV     1   --> A              
     e( 11 - 11) =      3.52627  eV     1   --> A              
     e( 12 - 12) =      3.60193  eV     1   --> A              
     e( 13 - 13) =      4.17395  eV     1   --> A              
     e( 14 - 14) =      4.70738  eV     1   --> A              
     e( 15 - 15) =      4.76116  eV     1   --> A              
     e( 16 - 16) =      4.77065  eV     1   --> A              
     e( 17 - 17) =      4.82749  eV     1   --> A              
     e( 18 - 18) =      5.11281  eV     1   --> A              
     e( 19 - 19) =      9.51396  eV     1   --> A              
     e( 20 - 20) =     10.39533  eV     1   --> A              
     e( 21 - 21) =     10.99498  eV     1   --> A              
     e( 22 - 22) =     11.08799  eV     1   --> A              
     e( 23 - 23) =     12.13327  eV     1   --> A              
     e( 24 - 24) =     12.35783  eV     1   --> A              
     e( 25 - 25) =     12.39252  eV     1   --> A              
     e( 26 - 26) =     12.44419  eV     1   --> A              
     e( 27 - 27) =     12.83939  eV     1   --> A              
     e( 28 - 28) =     12.91018  eV     1   --> A              
     e( 29 - 29) =     13.06507  eV     1   --> A              
     e( 30 - 30) =     13.21712  eV     1   --> A              
     e( 31 - 31) =     13.61280  eV     1   --> A              
     e( 32 - 32) =     13.82398  eV     1   --> A              
     e( 33 - 33) =     13.94496  eV     1   --> A              
     e( 34 - 34) =     14.55299  eV     1   --> A              
     e( 35 - 35) =     14.92213  eV     1   --> A              
     e( 36 - 36) =     15.19098  eV     1   --> A              
     e( 37 - 37) =     15.38578  eV     1   --> A              
     e( 38 - 38) =     15.65206  eV     1   --> A              
     e( 39 - 39) =     15.65952  eV     1   --> A              
     e( 40 - 40) =     16.05598  eV     1   --> A              
     e( 41 - 41) =     16.25855  eV     1   --> A              
     e( 42 - 42) =     16.45161  eV     1   --> A              
     e( 43 - 43) =     16.68559  eV     1   --> A              
     e( 44 - 44) =     17.73649  eV     1   --> A              
     e( 45 - 45) =     18.15982  eV     1   --> A              
     e( 46 - 46) =     18.59817  eV     1   --> A              
     e( 47 - 47) =     19.02111  eV     1   --> A              
     e( 48 - 48) =     19.89771  eV     1   --> A              
     e( 49 - 49) =     20.11941  eV     1   --> A              
     e( 50 - 50) =     20.40957  eV     1   --> A              
     e( 51 - 51) =     20.84063  eV     1   --> A              
     e( 52 - 52) =     20.85797  eV     1   --> A              
     e( 53 - 53) =     21.61539  eV     1   --> A              
     e( 54 - 54) =     21.63845  eV     1   --> A              
     e( 55 - 55) =     21.66094  eV     1   --> A              
     e( 56 - 56) =     22.16747  eV     1   --> A              
     e( 57 - 57) =     22.16936  eV     1   --> A              
     e( 58 - 58) =     22.37447  eV     1   --> A              
     e( 59 - 59) =     22.42303  eV     1   --> A              
     e( 60 - 60) =     22.53145  eV     1   --> A              
     e( 61 - 61) =     23.20489  eV     1   --> A              
     e( 62 - 62) =     23.65686  eV     1   --> A              
     e( 63 - 63) =     23.80545  eV     1   --> A              
     e( 64 - 64) =     24.29633  eV     1   --> A              
     e( 65 - 65) =     24.51451  eV     1   --> A              
     e( 66 - 66) =     24.75871  eV     1   --> A              
     e( 67 - 67) =     25.18518  eV     1   --> A              
     e( 68 - 68) =     25.82771  eV     1   --> A              
     e( 69 - 69) =     25.85249  eV     1   --> A              
     e( 70 - 70) =     26.01018  eV     1   --> A              

 **************************************************************************

 **************************************************************************

                    xk=(   0.19251,   0.11085,   0.00000  )

     Band symmetry, C_1 (1)     point group:

     e(  1 -  1) =     -8.09916  eV     1   --> A              
     e(  2 -  2) =     -8.01347  eV     1   --> A              
     e(  3 -  3) =     -7.92006  eV     1   --> A              
     e(  4 -  4) =     -7.82360  eV     1   --> A              
     e(  5 -  5) =     -0.61706  eV     1   --> A              
     e(  6 -  6) =     -0.18722  eV     1   --> A              
     e(  7 -  7) =      1.03376  eV     1   --> A              
     e(  8 -  8) =      2.07995  eV     1   --> A              
     e(  9 -  9) =      3.02729  eV     1   --> A              
     e( 10 - 10) =      3.21605  eV     1   --> A              
     e( 11 - 11) =      3.24365  eV     1   --> A              
     e( 12 - 12) =      3.35046  eV     1   --> A              
     e( 13 - 13) =      4.18271  eV     1   --> A              
     e( 14 - 14) =      4.55649  eV     1   --> A              
     e( 15 - 15) =      4.61518  eV     1   --> A              
     e( 16 - 16) =      4.61887  eV     1   --> A              
     e( 17 - 17) =      4.68222  eV     1   --> A              
     e( 18 - 18) =      5.13158  eV     1   --> A              
     e( 19 - 19) =      9.60681  eV     1   --> A              
     e( 20 - 20) =     10.34236  eV     1   --> A              
     e( 21 - 21) =     10.75038  eV     1   --> A              
     e( 22 - 22) =     10.84466  eV     1   --> A              
     e( 23 - 23) =     11.83428  eV     1   --> A              
     e( 24 - 24) =     12.15002  eV     1   --> A              
     e( 25 - 25) =     12.28555  eV     1   --> A              
     e( 26 - 26) =     12.37551  eV     1   --> A              
     e( 27 - 27) =     12.94724  eV     1   --> A              
     e( 28 - 28) =     13.02595  eV     1   --> A              
     e( 29 - 29) =     13.17852  eV     1   --> A              
     e( 30 - 30) =     13.31980  eV     1   --> A              
     e( 31 - 31) =     13.37822  eV     1   --> A              
     e( 32 - 32) =     13.63167  eV     1   --> A              
     e( 33 - 33) =     13.79426  eV     1   --> A              
     e( 34 - 34) =     14.59859  eV     1   --> A              
     e( 35 - 35) =     15.06253  eV     1   --> A              
     e( 36 - 36) =     15.20132  eV     1   --> A              
     e( 37 - 37) =     15.48602  eV     1   --> A              
     e( 38 - 38) =     15.59417  eV     1   --> A              
     e( 39 - 39) =     15.75899  eV     1   --> A              
     e( 40 - 40) =     16.33760  eV     1   --> A              
     e( 41 - 41) =     16.42177  eV     1   --> A              
     e( 42 - 42) =     16.60524  eV     1   --> A              
     e( 43 - 43) =     16.71535  eV     1   --> A              
     e( 44 - 44) =     17.65693  eV     1   --> A              
     e( 45 - 45) =     18.12163  eV     1   --> A              
     e( 46 - 46) =     18.73105  eV     1   --> A              
     e( 47 - 47) =     19.16670  eV     1   --> A              
     e( 48 - 48) =     19.88810  eV     1   --> A              
     e( 49 - 49) =     20.19139  eV     1   --> A              
     e( 50 - 50) =     20.38458  eV     1   --> A              
     e( 51 - 51) =     20.83955  eV     1   --> A              
     e( 52 - 52) =     21.05225  eV     1   --> A              
     e( 53 - 53) =     21.55294  eV     1   --> A              
     e( 54 - 54) =     21.79306  eV     1   --> A              
     e( 55 - 55) =     21.84085  eV     1   --> A              
     e( 56 - 56) =     22.06852  eV     1   --> A              
     e( 57 - 57) =     22.26898  eV     1   --> A              
     e( 58 - 58) =     22.60691  eV     1   --> A              
     e( 59 - 59) =     22.64196  eV     1   --> A              
     e( 60 - 60) =     22.88771  eV     1   --> A              
     e( 61 - 61) =     23.39166  eV     1   --> A              
     e( 62 - 62) =     23.76742  eV     1   --> A              
     e( 63 - 63) =     24.31471  eV     1   --> A              
     e( 64 - 64) =     24.76612  eV     1   --> A              
     e( 65 - 65) =     24.81165  eV     1   --> A              
     e( 66 - 66) =     25.07543  eV     1   --> A              
     e( 67 - 67) =     25.19599  eV     1   --> A              
     e( 68 - 68) =     25.91084  eV     1   --> A              
     e( 69 - 69) =     25.94740  eV     1   --> A              
     e( 70 - 70) =     26.01088  eV     1   --> A              

 **************************************************************************

 **************************************************************************

                    xk=(   0.21177,   0.12193,   0.00000  )

     Band symmetry, C_1 (1)     point group:

     e(  1 -  1) =     -8.00380  eV     1   --> A              
     e(  2 -  2) =     -7.92021  eV     1   --> A              
     e(  3 -  3) =     -7.82705  eV     1   --> A              
     e(  4 -  4) =     -7.73313  eV     1   --> A              
     e(  5 -  5) =     -0.50377  eV     1   --> A              
     e(  6 -  6) =     -0.09326  eV     1   --> A              
     e(  7 -  7) =      1.13364  eV     1   --> A              
     e(  8 -  8) =      2.07698  eV     1   --> A              
     e(  9 -  9) =      2.76887  eV     1   --> A              
     e( 10 - 10) =      2.91353  eV     1   --> A              
     e( 11 - 11) =      2.97025  eV     1   --> A              
     e( 12 - 12) =      3.13632  eV     1   --> A              
     e( 13 - 13) =      4.21724  eV     1   --> A              
     e( 14 - 14) =      4.39639  eV     1   --> A              
     e( 15 - 15) =      4.45300  eV     1   --> A              
     e( 16 - 16) =      4.45569  eV     1   --> A              
     e( 17 - 17) =      4.52316  eV     1   --> A              
     e( 18 - 18) =      5.14778  eV     1   --> A              
     e( 19 - 19) =      9.70140  eV     1   --> A              
     e( 20 - 20) =     10.27778  eV     1   --> A              
     e( 21 - 21) =     10.50430  eV     1   --> A              
     e( 22 - 22) =     10.59742  eV     1   --> A              
     e( 23 - 23) =     11.52756  eV     1   --> A              
     e( 24 - 24) =     11.88938  eV     1   --> A              
     e( 25 - 25) =     12.22382  eV     1   --> A              
     e( 26 - 26) =     12.31518  eV     1   --> A              
     e( 27 - 27) =     13.06870  eV     1   --> A              
     e( 28 - 28) =     13.08756  eV     1   --> A              
     e( 29 - 29) =     13.14792  eV     1   --> A              
     e( 30 - 30) =     13.30999  eV     1   --> A              
     e( 31 - 31) =     13.46532  eV     1   --> A              
     e( 32 - 32) =     13.47392  eV     1   --> A              
     e( 33 - 33) =     13.64548  eV     1   --> A              
     e( 34 - 34) =     14.57449  eV     1   --> A              
     e( 35 - 35) =     15.09576  eV     1   --> A              
     e( 36 - 36) =     15.24848  eV     1   --> A              
     e( 37 - 37) =     15.31912  eV     1   --> A              
     e( 38 - 38) =     15.58856  eV     1   --> A              
     e( 39 - 39) =     15.72665  eV     1   --> A              
     e( 40 - 40) =     16.71485  eV     1   --> A              
     e( 41 - 41) =     16.73316  eV     1   --> A              
     e( 42 - 42) =     16.92633  eV     1   --> A              
     e( 43 - 43) =     16.93317  eV     1   --> A              
     e( 44 - 44) =     17.56955  eV     1   --> A              
     e( 45 - 45) =     18.06826  eV     1   --> A              
     e( 46 - 46) =     18.87216  eV     1   --> A              
     e( 47 - 47) =     19.29474  eV     1   --> A              
     e( 48 - 48) =     19.89921  eV     1   --> A              
     e( 49 - 49) =     20.26848  eV     1   --> A              
     e( 50 - 50) =     20.34928  eV     1   --> A              
     e( 51 - 51) =     20.84229  eV     1   --> A              
     e( 52 - 52) =     21.14665  eV     1   --> A              
     e( 53 - 53) =     21.43245  eV     1   --> A              
     e( 54 - 54) =     21.90449  eV     1   --> A              
     e( 55 - 55) =     21.90875  eV     1   --> A              
     e( 56 - 56) =     22.10938  eV     1   --> A              
     e( 57 - 57) =     22.45363  eV     1   --> A              
     e( 58 - 58) =     22.73073  eV     1   --> A              
     e( 59 - 59) =     22.91680  eV     1   --> A              
     e( 60 - 60) =     23.14407  eV     1   --> A              
     e( 61 - 61) =     23.75162  eV     1   --> A              
     e( 62 - 62) =     24.06129  eV     1   --> A              
     e( 63 - 63) =     24.82878  eV     1   --> A              
     e( 64 - 64) =     24.84897  eV     1   --> A              
     e( 65 - 65) =     25.22283  eV     1   --> A              
     e( 66 - 66) =     25.39015  eV     1   --> A              
     e( 67 - 67) =     25.41331  eV     1   --> A              
     e( 68 - 68) =     25.84813  eV     1   --> A              
     e( 69 - 69) =     26.05816  eV     1   --> A              
     e( 70 - 70) =     26.21628  eV     1   --> A              

 **************************************************************************

 **************************************************************************

                    xk=(   0.23102,   0.13302,   0.00000  )

     Band symmetry, C_1 (1)     point group:

     e(  1 -  1) =     -7.90151  eV     1   --> A              
     e(  2 -  2) =     -7.82023  eV     1   --> A              
     e(  3 -  3) =     -7.72750  eV     1   --> A              
     e(  4 -  4) =     -7.63639  eV     1   --> A              
     e(  5 -  5) =     -0.38305  eV     1   --> A              
     e(  6 -  6) =      0.00181  eV     1   --> A              
     e(  7 -  7) =      1.23937  eV     1   --> A              
     e(  8 -  8) =      2.02168  eV     1   --> A              
     e(  9 -  9) =      2.50494  eV     1   --> A              
     e( 10 - 10) =      2.61887  eV     1   --> A              
     e( 11 - 11) =      2.71195  eV     1   --> A              
     e( 12 - 12) =      2.98500  eV     1   --> A              
     e( 13 - 13) =      4.17891  eV     1   --> A              
     e( 14 - 14) =      4.26242  eV     1   --> A              
     e( 15 - 15) =      4.28339  eV     1   --> A              
     e( 16 - 16) =      4.32498  eV     1   --> A              
     e( 17 - 17) =      4.35156  eV     1   --> A              
     e( 18 - 18) =      5.15970  eV     1   --> A              
     e( 19 - 19) =      9.79517  eV     1   --> A              
     e( 20 - 20) =     10.20223  eV     1   --> A              
     e( 21 - 21) =     10.25670  eV     1   --> A              
     e( 22 - 22) =     10.34605  eV     1   --> A              
     e( 23 - 23) =     11.22172  eV     1   --> A              
     e( 24 - 24) =     11.62896  eV     1   --> A              
     e( 25 - 25) =     12.17479  eV     1   --> A              
     e( 26 - 26) =     12.26255  eV     1   --> A              
     e( 27 - 27) =     12.84539  eV     1   --> A              
     e( 28 - 28) =     13.18409  eV     1   --> A              
     e( 29 - 29) =     13.26262  eV     1   --> A              
     e( 30 - 30) =     13.34921  eV     1   --> A              
     e( 31 - 31) =     13.43875  eV     1   --> A              
     e( 32 - 32) =     13.52625  eV     1   --> A              
     e( 33 - 33) =     13.61137  eV     1   --> A              
     e( 34 - 34) =     14.51822  eV     1   --> A              
     e( 35 - 35) =     14.98840  eV     1   --> A              
     e( 36 - 36) =     15.12244  eV     1   --> A              
     e( 37 - 37) =     15.38822  eV     1   --> A              
     e( 38 - 38) =     15.47060  eV     1   --> A              
     e( 39 - 39) =     15.60509  eV     1   --> A              
     e( 40 - 40) =     17.10437  eV     1   --> A              
     e( 41 - 41) =     17.11217  eV     1   --> A              
     e( 42 - 42) =     17.26735  eV     1   --> A              
     e( 43 - 43) =     17.34367  eV     1   --> A              
     e( 44 - 44) =     17.53731  eV     1   --> A              
     e( 45 - 45) =     18.00971  eV     1   --> A              
     e( 46 - 46) =     19.03111  eV     1   --> A              
     e( 47 - 47) =     19.41494  eV     1   --> A              
     e( 48 - 48) =     19.93655  eV     1   --> A              
     e( 49 - 49) =     20.29950  eV     1   --> A              
     e( 50 - 50) =     20.33485  eV     1   --> A              
     e( 51 - 51) =     20.84178  eV     1   --> A              
     e( 52 - 52) =     21.21963  eV     1   --> A              
     e( 53 - 53) =     21.30396  eV     1   --> A              
     e( 54 - 54) =     21.75156  eV     1   --> A              
     e( 55 - 55) =     21.90801  eV     1   --> A              
     e( 56 - 56) =     22.44203  eV     1   --> A              
     e( 57 - 57) =     22.74583  eV     1   --> A              
     e( 58 - 58) =     22.80213  eV     1   --> A              
     e( 59 - 59) =     23.20617  eV     1   --> A              
     e( 60 - 60) =     23.30830  eV     1   --> A              
     e( 61 - 61) =     24.14830  eV     1   --> A              
     e( 62 - 62) =     24.47773  eV     1   --> A              
     e( 63 - 63) =     24.76107  eV     1   --> A              
     e( 64 - 64) =     25.37589  eV     1   --> A              
     e( 65 - 65) =     25.57260  eV     1   --> A              
     e( 66 - 66) =     25.67914  eV     1   --> A              
     e( 67 - 67) =     25.78741  eV     1   --> A              
     e( 68 - 68) =     25.80019  eV     1   --> A              
     e( 69 - 69) =     26.16522  eV     1   --> A              
     e( 70 - 70) =     26.48438  eV     1   --> A              

 **************************************************************************

 **************************************************************************

                    xk=(   0.25027,   0.14410,   0.00000  )

     Band symmetry, C_1 (1)     point group:

     e(  1 -  1) =     -7.79298  eV     1   --> A              
     e(  2 -  2) =     -7.71424  eV     1   --> A              
     e(  3 -  3) =     -7.62219  eV     1   --> A              
     e(  4 -  4) =     -7.53415  eV     1   --> A              
     e(  5 -  5) =     -0.25680  eV     1   --> A              
     e(  6 -  6) =      0.09353  eV     1   --> A              
     e(  7 -  7) =      1.34778  eV     1   --> A              
     e(  8 -  8) =      1.89953  eV     1   --> A              
     e(  9 -  9) =      2.24619  eV     1   --> A              
     e( 10 - 10) =      2.33727  eV     1   --> A              
     e( 11 - 11) =      2.47559  eV     1   --> A              
     e( 12 - 12) =      2.91259  eV     1   --> A              
     e( 13 - 13) =      4.00098  eV     1   --> A              
     e( 14 - 14) =      4.07543  eV     1   --> A              
     e( 15 - 15) =      4.10029  eV     1   --> A              
     e( 16 - 16) =      4.16891  eV     1   --> A              
     e( 17 - 17) =      4.37577  eV     1   --> A              
     e( 18 - 18) =      5.16568  eV     1   --> A              
     e( 19 - 19) =      9.88423  eV     1   --> A              
     e( 20 - 20) =     10.00810  eV     1   --> A              
     e( 21 - 21) =     10.09071  eV     1   --> A              
     e( 22 - 22) =     10.11709  eV     1   --> A              
     e( 23 - 23) =     10.92160  eV     1   --> A              
     e( 24 - 24) =     11.37717  eV     1   --> A              
     e( 25 - 25) =     12.13826  eV     1   --> A              
     e( 26 - 26) =     12.21090  eV     1   --> A              
     e( 27 - 27) =     12.63157  eV     1   --> A              
     e( 28 - 28) =     13.17992  eV     1   --> A              
     e( 29 - 29) =     13.31198  eV     1   --> A              
     e( 30 - 30) =     13.39828  eV     1   --> A              
     e( 31 - 31) =     13.50380  eV     1   --> A              
     e( 32 - 32) =     13.57564  eV     1   --> A              
     e( 33 - 33) =     13.75677  eV     1   --> A              
     e( 34 - 34) =     14.44426  eV     1   --> A              
     e( 35 - 35) =     14.84463  eV     1   --> A              
     e( 36 - 36) =     14.93606  eV     1   --> A              
     e( 37 - 37) =     15.29841  eV     1   --> A              
     e( 38 - 38) =     15.43546  eV     1   --> A              
     e( 39 - 39) =     15.53734  eV     1   --> A              
     e( 40 - 40) =     17.20790  eV     1   --> A              
     e( 41 - 41) =     17.49280  eV     1   --> A              
     e( 42 - 42) =     17.65410  eV     1   --> A              
     e( 43 - 43) =     17.70540  eV     1   --> A              
     e( 44 - 44) =     17.87751  eV     1   --> A              
     e( 45 - 45) =     17.98176  eV     1   --> A              
     e( 46 - 46) =     19.22278  eV     1   --> A              
     e( 47 - 47) =     19.53382  eV     1   --> A              
     e( 48 - 48) =     19.99689  eV     1   --> A              
     e( 49 - 49) =     20.24241  eV     1   --> A              
     e( 50 - 50) =     20.39000  eV     1   --> A              
     e( 51 - 51) =     20.81980  eV     1   --> A              
     e( 52 - 52) =     21.19890  eV     1   --> A              
     e( 53 - 53) =     21.31721  eV     1   --> A              
     e( 54 - 54) =     21.63117  eV     1   --> A              
     e( 55 - 55) =     21.89373  eV     1   --> A              
     e( 56 - 56) =     22.76839  eV     1   --> A              
     e( 57 - 57) =     22.86276  eV     1   --> A              
     e( 58 - 58) =     23.07445  eV     1   --> A              
     e( 59 - 59) =     23.40674  eV     1   --> A              
     e( 60 - 60) =     23.50215  eV     1   --> A              
     e( 61 - 61) =     24.33642  eV     1   --> A              
     e( 62 - 62) =     24.87468  eV     1   --> A              
     e( 63 - 63) =     24.96206  eV     1   --> A              
     e( 64 - 64) =     25.68336  eV     1   --> A              
     e( 65 - 65) =     25.76428  eV     1   --> A              
     e( 66 - 66) =     25.88179  eV     1   --> A              
     e( 67 - 67) =     26.03943  eV     1   --> A              
     e( 68 - 68) =     26.22888  eV     1   --> A              
     e( 69 - 69) =     26.30422  eV     1   --> A              
     e( 70 - 70) =     26.77236  eV     1   --> A              

 **************************************************************************

 **************************************************************************

                    xk=(   0.26952,   0.15519,   0.00000  )

     Band symmetry, C_1 (1)     point group:

     e(  1 -  1) =     -7.67904  eV     1   --> A              
     e(  2 -  2) =     -7.60306  eV     1   --> A              
     e(  3 -  3) =     -7.51199  eV     1   --> A              
     e(  4 -  4) =     -7.42730  eV     1   --> A              
     e(  5 -  5) =     -0.12806  eV     1   --> A              
     e(  6 -  6) =      0.17545  eV     1   --> A              
     e(  7 -  7) =      1.44953  eV     1   --> A              
     e(  8 -  8) =      1.72372  eV     1   --> A              
     e(  9 -  9) =      2.00083  eV     1   --> A              
     e( 10 - 10) =      2.07965  eV     1   --> A              
     e( 11 - 11) =      2.26959  eV     1   --> A              
     e( 12 - 12) =      2.90692  eV     1   --> A              
     e( 13 - 13) =      3.80082  eV     1   --> A              
     e( 14 - 14) =      3.87355  eV     1   --> A              
     e( 15 - 15) =      3.90811  eV     1   --> A              
     e( 16 - 16) =      3.97694  eV     1   --> A              
     e( 17 - 17) =      4.44883  eV     1   --> A              
     e( 18 - 18) =      5.16413  eV     1   --> A              
     e( 19 - 19) =      9.75960  eV     1   --> A              
     e( 20 - 20) =      9.83218  eV     1   --> A              
     e( 21 - 21) =      9.96283  eV     1   --> A              
     e( 22 - 22) =     10.02471  eV     1   --> A              
     e( 23 - 23) =     10.63044  eV     1   --> A              
     e( 24 - 24) =     11.13876  eV     1   --> A              
     e( 25 - 25) =     12.11221  eV     1   --> A              
     e( 26 - 26) =     12.14460  eV     1   --> A              
     e( 27 - 27) =     12.47081  eV     1   --> A              
     e( 28 - 28) =     13.11626  eV     1   --> A              
     e( 29 - 29) =     13.27744  eV     1   --> A              
     e( 30 - 30) =     13.53288  eV     1   --> A              
     e( 31 - 31) =     13.61965  eV     1   --> A              
     e( 32 - 32) =     13.71870  eV     1   --> A              
     e( 33 - 33) =     13.90696  eV     1   --> A              
     e( 34 - 34) =     14.34638  eV     1   --> A              
     e( 35 - 35) =     14.68335  eV     1   --> A              
     e( 36 - 36) =     14.79116  eV     1   --> A              
     e( 37 - 37) =     15.10925  eV     1   --> A              
     e( 38 - 38) =     15.24475  eV     1   --> A              
     e( 39 - 39) =     15.68292  eV     1   --> A              
     e( 40 - 40) =     17.10318  eV     1   --> A              
     e( 41 - 41) =     17.82292  eV     1   --> A              
     e( 42 - 42) =     17.82333  eV     1   --> A              
     e( 43 - 43) =     18.02162  eV     1   --> A              
     e( 44 - 44) =     18.25487  eV     1   --> A              
     e( 45 - 45) =     18.39258  eV     1   --> A              
     e( 46 - 46) =     19.46310  eV     1   --> A              
     e( 47 - 47) =     19.65582  eV     1   --> A              
     e( 48 - 48) =     20.07661  eV     1   --> A              
     e( 49 - 49) =     20.20759  eV     1   --> A              
     e( 50 - 50) =     20.44701  eV     1   --> A              
     e( 51 - 51) =     20.75925  eV     1   --> A              
     e( 52 - 52) =     21.14774  eV     1   --> A              
     e( 53 - 53) =     21.44686  eV     1   --> A              
     e( 54 - 54) =     21.56538  eV     1   --> A              
     e( 55 - 55) =     21.89556  eV     1   --> A              
     e( 56 - 56) =     22.91764  eV     1   --> A              
     e( 57 - 57) =     23.07101  eV     1   --> A              
     e( 58 - 58) =     23.39499  eV     1   --> A              
     e( 59 - 59) =     23.44792  eV     1   --> A              
     e( 60 - 60) =     23.80013  eV     1   --> A              
     e( 61 - 61) =     24.31691  eV     1   --> A              
     e( 62 - 62) =     25.07484  eV     1   --> A              
     e( 63 - 63) =     25.44517  eV     1   --> A              
     e( 64 - 64) =     25.81049  eV     1   --> A              
     e( 65 - 65) =     25.97127  eV     1   --> A              
     e( 66 - 66) =     26.00541  eV     1   --> A              
     e( 67 - 67) =     26.31136  eV     1   --> A              
     e( 68 - 68) =     26.62546  eV     1   --> A              
     e( 69 - 69) =     26.68439  eV     1   --> A              
     e( 70 - 70) =     27.06805  eV     1   --> A              

 **************************************************************************

 **************************************************************************

                    xk=(   0.28877,   0.16627,   0.00000  )

     Band symmetry, C_1 (1)     point group:

     e(  1 -  1) =     -7.56065  eV     1   --> A              
     e(  2 -  2) =     -7.48764  eV     1   --> A              
     e(  3 -  3) =     -7.39794  eV     1   --> A              
     e(  4 -  4) =     -7.31686  eV     1   --> A              
     e(  5 -  5) =     -0.00193  eV     1   --> A              
     e(  6 -  6) =      0.23880  eV     1   --> A              
     e(  7 -  7) =      1.50340  eV     1   --> A              
     e(  8 -  8) =      1.52088  eV     1   --> A              
     e(  9 -  9) =      1.77731  eV     1   --> A              
     e( 10 - 10) =      1.88825  eV     1   --> A              
     e( 11 - 11) =      2.10436  eV     1   --> A              
     e( 12 - 12) =      2.94179  eV     1   --> A              
     e( 13 - 13) =      3.59085  eV     1   --> A              
     e( 14 - 14) =      3.66306  eV     1   --> A              
     e( 15 - 15) =      3.70907  eV     1   --> A              
     e( 16 - 16) =      3.77764  eV     1   --> A              
     e( 17 - 17) =      4.52572  eV     1   --> A              
     e( 18 - 18) =      5.15361  eV     1   --> A              
     e( 19 - 19) =      9.51272  eV     1   --> A              
     e( 20 - 20) =      9.57187  eV     1   --> A              
     e( 21 - 21) =      9.92718  eV     1   --> A              
     e( 22 - 22) =     10.02429  eV     1   --> A              
     e( 23 - 23) =     10.35094  eV     1   --> A              
     e( 24 - 24) =     10.91663  eV     1   --> A              
     e( 25 - 25) =     12.05299  eV     1   --> A              
     e( 26 - 26) =     12.09277  eV     1   --> A              
     e( 27 - 27) =     12.38023  eV     1   --> A              
     e( 28 - 28) =     13.07706  eV     1   --> A              
     e( 29 - 29) =     13.23855  eV     1   --> A              
     e( 30 - 30) =     13.68993  eV     1   --> A              
     e( 31 - 31) =     13.77028  eV     1   --> A              
     e( 32 - 32) =     13.86534  eV     1   --> A              
     e( 33 - 33) =     14.04353  eV     1   --> A              
     e( 34 - 34) =     14.23388  eV     1   --> A              
     e( 35 - 35) =     14.51601  eV     1   --> A              
     e( 36 - 36) =     14.70934  eV     1   --> A              
     e( 37 - 37) =     14.92452  eV     1   --> A              
     e( 38 - 38) =     15.04249  eV     1   --> A              
     e( 39 - 39) =     15.82555  eV     1   --> A              
     e( 40 - 40) =     16.96304  eV     1   --> A              
     e( 41 - 41) =     17.76405  eV     1   --> A              
     e( 42 - 42) =     18.06420  eV     1   --> A              
     e( 43 - 43) =     18.30583  eV     1   --> A              
     e( 44 - 44) =     18.73643  eV     1   --> A              
     e( 45 - 45) =     18.89820  eV     1   --> A              
     e( 46 - 46) =     19.73637  eV     1   --> A              
     e( 47 - 47) =     19.78743  eV     1   --> A              
     e( 48 - 48) =     20.17373  eV     1   --> A              
     e( 49 - 49) =     20.25514  eV     1   --> A              
     e( 50 - 50) =     20.52328  eV     1   --> A              
     e( 51 - 51) =     20.70041  eV     1   --> A              
     e( 52 - 52) =     21.14789  eV     1   --> A              
     e( 53 - 53) =     21.55353  eV     1   --> A              
     e( 54 - 54) =     21.60264  eV     1   --> A              
     e( 55 - 55) =     21.92988  eV     1   --> A              
     e( 56 - 56) =     22.95988  eV     1   --> A              
     e( 57 - 57) =     23.34707  eV     1   --> A              
     e( 58 - 58) =     23.44199  eV     1   --> A              
     e( 59 - 59) =     23.68051  eV     1   --> A              
     e( 60 - 60) =     24.08913  eV     1   --> A              
     e( 61 - 61) =     24.28486  eV     1   --> A              
     e( 62 - 62) =     25.09169  eV     1   --> A              
     e( 63 - 63) =     25.93813  eV     1   --> A              
     e( 64 - 64) =     25.96095  eV     1   --> A              
     e( 65 - 65) =     26.07498  eV     1   --> A              
     e( 66 - 66) =     26.09184  eV     1   --> A              
     e( 67 - 67) =     26.64103  eV     1   --> A              
     e( 68 - 68) =     26.87906  eV     1   --> A              
     e( 69 - 69) =     27.16751  eV     1   --> A              
     e( 70 - 70) =     27.34245  eV     1   --> A              

[...]
     e( 61 - 61) =     22.31865  eV     1   --> A'             
     e( 62 - 62) =     22.43159  eV     1   --> A'             
     e( 63 - 63) =     22.91378  eV     1   --> A''            
     e( 64 - 64) =     23.05743  eV     1   --> A'             
     e( 65 - 65) =     23.84823  eV     1   --> A'             
     e( 66 - 66) =     24.56288  eV     1   --> A'             
     e( 67 - 67) =     24.80095  eV     1   --> A'             
     e( 68 - 68) =     25.32073  eV     1   --> A''            
     e( 69 - 69) =     25.59888  eV     1   --> A'             
     e( 70 - 70) =     26.04924  eV     1   --> A'             

 **************************************************************************

 **************************************************************************

                    xk=(   0.05775,   0.00000,   0.00000  )

     Band symmetry, C_s (m)     point group:

     e(  1 -  1) =     -8.54314  eV     1   --> A'             
     e(  2 -  2) =     -8.44841  eV     1   --> A'             
     e(  3 -  3) =     -8.35529  eV     1   --> A'             
     e(  4 -  4) =     -8.24787  eV     1   --> A'             
     e(  5 -  5) =     -1.14470  eV     1   --> A'             
     e(  6 -  6) =     -0.65966  eV     1   --> A'             
     e(  7 -  7) =      0.56487  eV     1   --> A'             
     e(  8 -  8) =      1.82226  eV     1   --> A'             
     e(  9 -  9) =      3.55602  eV     1   --> A'             
     e( 10 - 10) =      4.96889  eV     1   --> A'             
     e( 11 - 11) =      5.15182  eV     1   --> A'             
     e( 12 - 12) =      5.16823  eV     1   --> A'             
     e( 13 - 13) =      5.21858  eV     1   --> A'             
     e( 14 - 14) =      5.22429  eV     1   --> A'             
     e( 15 - 15) =      5.29467  eV     1   --> A''            
     e( 16 - 16) =      5.32390  eV     1   --> A''            
     e( 17 - 17) =      5.36256  eV     1   --> A''            
     e( 18 - 18) =      5.39297  eV     1   --> A''            
     e( 19 - 19) =      9.04411  eV     1   --> A'             
     e( 20 - 20) =     10.48973  eV     1   --> A'             
     e( 21 - 21) =     11.90489  eV     1   --> A'             
     e( 22 - 22) =     12.05865  eV     1   --> A'             
     e( 23 - 23) =     12.10646  eV     1   --> A'             
     e( 24 - 24) =     12.26345  eV     1   --> A'             
     e( 25 - 25) =     12.48944  eV     1   --> A'             
     e( 26 - 26) =     12.51790  eV     1   --> A'             
     e( 27 - 27) =     12.74120  eV     1   --> A''            
     e( 28 - 28) =     12.79933  eV     1   --> A''            
     e( 29 - 29) =     13.13263  eV     1   --> A'             
     e( 30 - 30) =     13.21002  eV     1   --> A'             
     e( 31 - 31) =     13.31411  eV     1   --> A''            
     e( 32 - 32) =     13.38884  eV     1   --> A''            
     e( 33 - 33) =     13.86873  eV     1   --> A'             
     e( 34 - 34) =     15.17302  eV     1   --> A'             
     e( 35 - 35) =     15.43725  eV     1   --> A''            
     e( 36 - 36) =     15.49558  eV     1   --> A'             
     e( 37 - 37) =     15.70960  eV     1   --> A''            
     e( 38 - 38) =     15.78685  eV     1   --> A'             
     e( 39 - 39) =     15.87846  eV     1   --> A'             
     e( 40 - 40) =     16.71774  eV     1   --> A'             
     e( 41 - 41) =     16.80904  eV     1   --> A''            
     e( 42 - 42) =     16.81573  eV     1   --> A'             
     e( 43 - 43) =     17.31878  eV     1   --> A''            
     e( 44 - 44) =     17.63745  eV     1   --> A''            
     e( 45 - 45) =     17.64535  eV     1   --> A'             
     e( 46 - 46) =     17.65178  eV     1   --> A'             
     e( 47 - 47) =     17.88526  eV     1   --> A''            
     e( 48 - 48) =     18.17272  eV     1   --> A'             
     e( 49 - 49) =     19.83569  eV     1   --> A'             
     e( 50 - 50) =     19.91641  eV     1   --> A'             
     e( 51 - 51) =     20.12661  eV     1   --> A'             
     e( 52 - 52) =     20.23093  eV     1   --> A'             
     e( 53 - 53) =     20.62286  eV     1   --> A'             
     e( 54 - 54) =     20.99185  eV     1   --> A'             
     e( 55 - 55) =     21.02480  eV     1   --> A'             
     e( 56 - 56) =     21.26404  eV     1   --> A''            
     e( 57 - 57) =     21.46670  eV     1   --> A'             
     e( 58 - 58) =     21.66282  eV     1   --> A''            
     e( 59 - 59) =     21.80156  eV     1   --> A'             
     e( 60 - 60) =     22.03015  eV     1   --> A''            
     e( 61 - 61) =     22.12306  eV     1   --> A'             
     e( 62 - 62) =     22.49248  eV     1   --> A'             
     e( 63 - 63) =     22.86485  eV     1   --> A'             
     e( 64 - 64) =     22.86661  eV     1   --> A''            
     e( 65 - 65) =     23.78520  eV     1   --> A'             
     e( 66 - 66) =     24.51417  eV     1   --> A'             
     e( 67 - 67) =     24.77102  eV     1   --> A'             
     e( 68 - 68) =     25.45968  eV     1   --> A''            
     e( 69 - 69) =     25.61563  eV     1   --> A'             
     e( 70 - 70) =     26.11671  eV     1   --> A'             

 **************************************************************************

 **************************************************************************

                    xk=(   0.03850,   0.00000,   0.00000  )

     Band symmetry, C_s (m)     point group:

     e(  1 -  1) =     -8.56168  eV     1   --> A'             
     e(  2 -  2) =     -8.46659  eV     1   --> A'             
     e(  3 -  3) =     -8.37352  eV     1   --> A'             
     e(  4 -  4) =     -8.26568  eV     1   --> A'             
     e(  5 -  5) =     -1.16659  eV     1   --> A'             
     e(  6 -  6) =     -0.68003  eV     1   --> A'             
     e(  7 -  7) =      0.54529  eV     1   --> A'             
     e(  8 -  8) =      1.80754  eV     1   --> A'             
     e(  9 -  9) =      3.54618  eV     1   --> A'             
     e( 10 - 10) =      4.96960  eV     1   --> A'             
     e( 11 - 11) =      5.26262  eV     1   --> A'             
     e( 12 - 12) =      5.28723  eV     1   --> A'             
     e( 13 - 13) =      5.32419  eV     1   --> A''            
     e( 14 - 14) =      5.32841  eV     1   --> A'             
     e( 15 - 15) =      5.34668  eV     1   --> A'             
     e( 16 - 16) =      5.35265  eV     1   --> A''            
     e( 17 - 17) =      5.38893  eV     1   --> A''            
     e( 18 - 18) =      5.41850  eV     1   --> A''            
     e( 19 - 19) =      9.00976  eV     1   --> A'             
     e( 20 - 20) =     10.48275  eV     1   --> A'             
     e( 21 - 21) =     11.81725  eV     1   --> A'             
     e( 22 - 22) =     11.97587  eV     1   --> A'             
     e( 23 - 23) =     12.02365  eV     1   --> A'             
     e( 24 - 24) =     12.18126  eV     1   --> A'             
     e( 25 - 25) =     12.60149  eV     1   --> A'             
     e( 26 - 26) =     12.62677  eV     1   --> A'             
     e( 27 - 27) =     12.70637  eV     1   --> A''            
     e( 28 - 28) =     12.75823  eV     1   --> A''            
     e( 29 - 29) =     13.18134  eV     1   --> A'             
     e( 30 - 30) =     13.25360  eV     1   --> A'             
     e( 31 - 31) =     13.25488  eV     1   --> A''            
     e( 32 - 32) =     13.32474  eV     1   --> A''            
     e( 33 - 33) =     13.82910  eV     1   --> A'             
     e( 34 - 34) =     15.39326  eV     1   --> A'             
     e( 35 - 35) =     15.51927  eV     1   --> A''            
     e( 36 - 36) =     15.64624  eV     1   --> A'             
     e( 37 - 37) =     15.75200  eV     1   --> A''            
     e( 38 - 38) =     15.80515  eV     1   --> A'             
     e( 39 - 39) =     16.07775  eV     1   --> A'             
     e( 40 - 40) =     16.83567  eV     1   --> A'             
     e( 41 - 41) =     16.87336  eV     1   --> A''            
     e( 42 - 42) =     16.93404  eV     1   --> A'             
     e( 43 - 43) =     17.33243  eV     1   --> A''            
     e( 44 - 44) =     17.51648  eV     1   --> A'             
     e( 45 - 45) =     17.54393  eV     1   --> A''            
     e( 46 - 46) =     17.55898  eV     1   --> A'             
     e( 47 - 47) =     17.77255  eV     1   --> A''            
     e( 48 - 48) =     17.93683  eV     1   --> A'             
     e( 49 - 49) =     19.76611  eV     1   --> A'             
     e( 50 - 50) =     19.78705  eV     1   --> A'             
     e( 51 - 51) =     19.98892  eV     1   --> A'             
     e( 52 - 52) =     20.08783  eV     1   --> A'             
     e( 53 - 53) =     20.55879  eV     1   --> A'             
     e( 54 - 54) =     20.87876  eV     1   --> A'             
     e( 55 - 55) =     21.10524  eV     1   --> A'             
     e( 56 - 56) =     21.21218  eV     1   --> A''            
     e( 57 - 57) =     21.48887  eV     1   --> A'             
     e( 58 - 58) =     21.56962  eV     1   --> A''            
     e( 59 - 59) =     21.94758  eV     1   --> A'             
     e( 60 - 60) =     21.96538  eV     1   --> A'             
     e( 61 - 61) =     22.08736  eV     1   --> A''            
     e( 62 - 62) =     22.58650  eV     1   --> A'             
     e( 63 - 63) =     22.71656  eV     1   --> A'             
     e( 64 - 64) =     22.82223  eV     1   --> A''            
     e( 65 - 65) =     23.72385  eV     1   --> A'             
     e( 66 - 66) =     24.24564  eV     1   --> A'             
     e( 67 - 67) =     24.93602  eV     1   --> A'             
     e( 68 - 68) =     25.58518  eV     1   --> A''            
     e( 69 - 69) =     25.65526  eV     1   --> A'             
     e( 70 - 70) =     26.04949  eV     1   --> A'             

 **************************************************************************

 **************************************************************************

                    xk=(   0.01925,   0.00000,   0.00000  )

     Band symmetry, C_s (m)     point group:

     e(  1 -  1) =     -8.57282  eV     1   --> A'             
     e(  2 -  2) =     -8.47752  eV     1   --> A'             
     e(  3 -  3) =     -8.38448  eV     1   --> A'             
     e(  4 -  4) =     -8.27638  eV     1   --> A'             
     e(  5 -  5) =     -1.17975  eV     1   --> A'             
     e(  6 -  6) =     -0.69229  eV     1   --> A'             
     e(  7 -  7) =      0.53352  eV     1   --> A'             
     e(  8 -  8) =      1.79862  eV     1   --> A'             
     e(  9 -  9) =      3.53988  eV     1   --> A'             
     e( 10 - 10) =      4.96747  eV     1   --> A'             
     e( 11 - 11) =      5.33405  eV     1   --> A'             
     e( 12 - 12) =      5.34228  eV     1   --> A''            
     e( 13 - 13) =      5.36112  eV     1   --> A'             
     e( 14 - 14) =      5.37026  eV     1   --> A''            
     e( 15 - 15) =      5.39709  eV     1   --> A'             
     e( 16 - 16) =      5.40498  eV     1   --> A''            
     e( 17 - 17) =      5.42315  eV     1   --> A'             
     e( 18 - 18) =      5.43402  eV     1   --> A''            
     e( 19 - 19) =      8.98787  eV     1   --> A'             
     e( 20 - 20) =     10.47705  eV     1   --> A'             
     e( 21 - 21) =     11.75603  eV     1   --> A'             
     e( 22 - 22) =     11.91547  eV     1   --> A'             
     e( 23 - 23) =     11.96875  eV     1   --> A'             
     e( 24 - 24) =     12.12609  eV     1   --> A'             
     e( 25 - 25) =     12.67474  eV     1   --> A'             
     e( 26 - 26) =     12.68468  eV     1   --> A''            
     e( 27 - 27) =     12.71259  eV     1   --> A'             
     e( 28 - 28) =     12.73188  eV     1   --> A''            
     e( 29 - 29) =     13.21701  eV     1   --> A'             
     e( 30 - 30) =     13.21898  eV     1   --> A''            
     e( 31 - 31) =     13.28453  eV     1   --> A'             
     e( 32 - 32) =     13.28567  eV     1   --> A''            
     e( 33 - 33) =     13.79293  eV     1   --> A'             
     e( 34 - 34) =     15.55839  eV     1   --> A'             
     e( 35 - 35) =     15.58140  eV     1   --> A''            
     e( 36 - 36) =     15.75119  eV     1   --> A'             
     e( 37 - 37) =     15.77596  eV     1   --> A''            
     e( 38 - 38) =     15.80342  eV     1   --> A'             
     e( 39 - 39) =     16.22236  eV     1   --> A'             
     e( 40 - 40) =     16.91598  eV     1   --> A''            
     e( 41 - 41) =     16.91697  eV     1   --> A'             
     e( 42 - 42) =     17.02482  eV     1   --> A'             
     e( 43 - 43) =     17.33864  eV     1   --> A''            
     e( 44 - 44) =     17.40451  eV     1   --> A'             
     e( 45 - 45) =     17.48655  eV     1   --> A''            
     e( 46 - 46) =     17.50296  eV     1   --> A'             
     e( 47 - 47) =     17.69536  eV     1   --> A''            
     e( 48 - 48) =     17.75818  eV     1   --> A'             
     e( 49 - 49) =     19.70361  eV     1   --> A'             
     e( 50 - 50) =     19.71786  eV     1   --> A'             
     e( 51 - 51) =     19.90331  eV     1   --> A'             
     e( 52 - 52) =     19.99120  eV     1   --> A'             
     e( 53 - 53) =     20.51589  eV     1   --> A'             
     e( 54 - 54) =     20.79942  eV     1   --> A'             
     e( 55 - 55) =     21.16867  eV     1   --> A'             
     e( 56 - 56) =     21.18305  eV     1   --> A''            
     e( 57 - 57) =     21.50280  eV     1   --> A'             
     e( 58 - 58) =     21.50943  eV     1   --> A''            
     e( 59 - 59) =     21.85938  eV     1   --> A'             
     e( 60 - 60) =     22.09296  eV     1   --> A'             
     e( 61 - 61) =     22.13062  eV     1   --> A''            
     e( 62 - 62) =     22.53573  eV     1   --> A'             
     e( 63 - 63) =     22.74627  eV     1   --> A'             
     e( 64 - 64) =     22.78856  eV     1   --> A''            
     e( 65 - 65) =     23.68177  eV     1   --> A'             
     e( 66 - 66) =     24.03712  eV     1   --> A'             
     e( 67 - 67) =     25.03119  eV     1   --> A'             
     e( 68 - 68) =     25.67832  eV     1   --> A''            
     e( 69 - 69) =     25.70748  eV     1   --> A'             
     e( 70 - 70) =     25.96376  eV     1   --> A'             

 **************************************************************************

 **************************************************************************

                    xk=(   0.00000,   0.00000,   0.00000  )

     Band symmetry, C_s (m)     point group:

     e(  1 -  1) =     -8.57654  eV     1   --> A'             
     e(  2 -  2) =     -8.48117  eV     1   --> A'             
     e(  3 -  3) =     -8.38814  eV     1   --> A'             
     e(  4 -  4) =     -8.27996  eV     1   --> A'             
     e(  5 -  5) =     -1.18414  eV     1   --> A'             
     e(  6 -  6) =     -0.69639  eV     1   --> A'             
     e(  7 -  7) =      0.52960  eV     1   --> A'             
     e(  8 -  8) =      1.79563  eV     1   --> A'             
     e(  9 -  9) =      3.53772  eV     1   --> A'             
     e( 10 - 10) =      4.96656  eV     1   --> A'             
     e( 11 - 11) =      5.34838  eV     1   --> A''            
     e( 12 - 12) =      5.35851  eV     1   --> A'             
     e( 13 - 13) =      5.37619  eV     1   --> A''            
     e( 14 - 14) =      5.38619  eV     1   --> A'             
     e( 15 - 15) =      5.41037  eV     1   --> A''            
     e( 16 - 16) =      5.42046  eV     1   --> A'             
     e( 17 - 17) =      5.43923  eV     1   --> A''            
     e( 18 - 18) =      5.44918  eV     1   --> A'             
     e( 19 - 19) =      8.98033  eV     1   --> A'             
     e( 20 - 20) =     10.47486  eV     1   --> A'             
     e( 21 - 21) =     11.73446  eV     1   --> A'             
     e( 22 - 22) =     11.89404  eV     1   --> A'             
     e( 23 - 23) =     11.94971  eV     1   --> A'             
     e( 24 - 24) =     12.10681  eV     1   --> A'             
     e( 25 - 25) =     12.67734  eV     1   --> A''            
     e( 26 - 26) =     12.69963  eV     1   --> A'             
     e( 27 - 27) =     12.72280  eV     1   --> A''            
     e( 28 - 28) =     12.74515  eV     1   --> A'             
     e( 29 - 29) =     13.20696  eV     1   --> A''            
     e( 30 - 30) =     13.22991  eV     1   --> A'             
     e( 31 - 31) =     13.27254  eV     1   --> A''            
     e( 32 - 32) =     13.29552  eV     1   --> A'             
     e( 33 - 33) =     13.77813  eV     1   --> A'             
     e( 34 - 34) =     15.60546  eV     1   --> A''            
     e( 35 - 35) =     15.62586  eV     1   --> A'             
     e( 36 - 36) =     15.78090  eV     1   --> A'             
     e( 37 - 37) =     15.78272  eV     1   --> A''            
     e( 38 - 38) =     15.80322  eV     1   --> A'             
     e( 39 - 39) =     16.27721  eV     1   --> A'             
     e( 40 - 40) =     16.93101  eV     1   --> A''            
     e( 41 - 41) =     16.94811  eV     1   --> A'             
     e( 42 - 42) =     17.06190  eV     1   --> A'             
     e( 43 - 43) =     17.34022  eV     1   --> A''            
     e( 44 - 44) =     17.35738  eV     1   --> A'             
     e( 45 - 45) =     17.46757  eV     1   --> A''            
     e( 46 - 46) =     17.48539  eV     1   --> A'             
     e( 47 - 47) =     17.66744  eV     1   --> A''            
     e( 48 - 48) =     17.68556  eV     1   --> A'             
     e( 49 - 49) =     19.67491  eV     1   --> A'             
     e( 50 - 50) =     19.70069  eV     1   --> A'             
     e( 51 - 51) =     19.87430  eV     1   --> A'             
     e( 52 - 52) =     19.95721  eV     1   --> A'             
     e( 53 - 53) =     20.50092  eV     1   --> A'             
     e( 54 - 54) =     20.77111  eV     1   --> A'             
     e( 55 - 55) =     21.17385  eV     1   --> A''            
     e( 56 - 56) =     21.19347  eV     1   --> A'             
     e( 57 - 57) =     21.48848  eV     1   --> A''            
     e( 58 - 58) =     21.50736  eV     1   --> A'             
     e( 59 - 59) =     21.82107  eV     1   --> A'             
     e( 60 - 60) =     22.14704  eV     1   --> A''            
     e( 61 - 61) =     22.16710  eV     1   --> A'             
     e( 62 - 62) =     22.47225  eV     1   --> A'             
     e( 63 - 63) =     22.77564  eV     1   --> A''            
     e( 64 - 64) =     22.79467  eV     1   --> A'             
     e( 65 - 65) =     23.66691  eV     1   --> A'             
     e( 66 - 66) =     23.95337  eV     1   --> A'             
     e( 67 - 67) =     25.06041  eV     1   --> A'             
     e( 68 - 68) =     25.71401  eV     1   --> A''            
     e( 69 - 69) =     25.73318  eV     1   --> A'             
     e( 70 - 70) =     25.93120  eV     1   --> A'             

 **************************************************************************
 
     BANDS        :     12.01s CPU     16.26s WALL

 
   This run was terminated on:  13:23: 1  18Jun2023            

=------------------------------------------------------------------------------=
   JOB DONE.
=------------------------------------------------------------------------------=
