
     Program PWSCF v.7.0 starts on 18Jun2023 at 13:12:52 

     This program is part of the open-source Quantum ESPRESSO suite
     for quantum simulation of materials; please cite
         "P. Giannozzi et al., J. Phys.:Condens. Matter 21 395502 (2009);
         "P. Giannozzi et al., J. Phys.:Condens. Matter 29 465901 (2017);
         "P. Giannozzi et al., J. Chem. Phys. 152 154105 (2020);
          URL http://www.quantum-espresso.org", 
     in publications or presentations arising from this work. More details at
     http://www.quantum-espresso.org/quote

     Parallel version (MPI), running on    16 processors

     MPI processes distributed on     1 nodes
     R & G space division:  proc/nbgrp/npool/nimage =      16
     3803 MiB available memory on the printing compute node when the environment starts
 
     Waiting for input...
     Reading input from standard input

     Current dimensions of program PWSCF are:
     Max number of different atomic species (ntypx) = 10
     Max number of k-points (npk) =  40000
     Max angular momentum in pseudopotentials (lmaxx) =  4
     Message from routine volume:
     axis vectors are left-handed
     file Al.pbe-n-kjpaw_psl.1.0.0.UPF: wavefunction(s)  3S 3P renormalized
     file S.pbe-n-kjpaw_psl.1.0.0.UPF: wavefunction(s)  3S 3P renormalized

     IMPORTANT: XC functional enforced from input :
     Exchange-correlation= VDW-DF2-B86R
                           (   1   4  26   0   2   0   0)
     Any further DFT definition will be discarded
     Please, verify this is what you really want

     Message from routine setup:
     using ibrav=0 with symmetry is DISCOURAGED, use correct ibrav instead

     Subspace diagonalization in iterative solution of the eigenvalue problem:
     a serial algorithm will be used

 
     Parallelization info
     --------------------
     sticks:   dense  smooth     PW     G-vecs:    dense   smooth      PW
     Min          39      39     12                 3969     3969     702
     Max          40      40     13                 3977     3977     719
     Sum         625     625    199                63569    63569   11349
 
     Using Slab Decomposition
 


     bravais-lattice index     =            0
     lattice parameter (alat)  =       6.1344  a.u.
     unit-cell volume          =    1013.9290 (a.u.)^3
     number of atoms/cell      =            8
     number of atomic types    =            2
     number of electrons       =        36.00
     number of Kohn-Sham states=           70
     kinetic-energy cutoff     =      60.0000  Ry
     charge density cutoff     =     240.0000  Ry
     scf convergence threshold =      1.0E-08
     mixing beta               =       0.5000
     number of iterations used =            8  plain     mixing
     Exchange-correlation= VDW-DF2-B86R
                           (   1   4  26   0   2   0   0)

     celldm(1)=   6.134387  celldm(2)=   0.000000  celldm(3)=   0.000000
     celldm(4)=   0.000000  celldm(5)=   0.000000  celldm(6)=   0.000000

     crystal axes: (cart. coord. in units of alat)
               a(1) = (   0.865734   0.500504   0.000000 )  
               a(2) = (   0.865734  -0.500504   0.000000 )  
               a(3) = (   0.000000   0.000000   5.068413 )  

     reciprocal axes: (cart. coord. in units 2 pi/alat)
               b(1) = (  0.577544  0.998993  0.000000 )  
               b(2) = (  0.577544 -0.998993  0.000000 )  
               b(3) = (  0.000000  0.000000  0.197300 )  


     PseudoPot. # 1 for Al read from file:
     /home/mainadmin/research/danu/pseudo/Al.pbe-n-kjpaw_psl.1.0.0.UPF
     MD5 check sum: 502b6b27b9c6270cab5dd1084b96fa6d
     Pseudo is Projector augmented-wave + core cor, Zval =  3.0
     Generated using &quot;atomic&quot; code by A. Dal Corso  v.6.3
     Shape of augmentation charge: PSQ
     Using radial grid of 1135 points,  6 beta functions with: 
                l(1) =   0
                l(2) =   0
                l(3) =   1
                l(4) =   1
                l(5) =   2
                l(6) =   2
     Q(r) pseudized with 0 coefficients 


     PseudoPot. # 2 for S  read from file:
     /home/mainadmin/research/danu/pseudo/S.pbe-n-kjpaw_psl.1.0.0.UPF
     MD5 check sum: fb45dfebcf3e72a4e1bd4a866ec2e262
     Pseudo is Projector augmented-wave + core cor, Zval =  6.0
     Generated using &quot;atomic&quot; code by A. Dal Corso  v.6.3
     Shape of augmentation charge: PSQ
     Using radial grid of 1151 points,  6 beta functions with: 
                l(1) =   0
                l(2) =   0
                l(3) =   1
                l(4) =   1
                l(5) =   2
                l(6) =   2
     Q(r) pseudized with 0 coefficients 


     atomic species   valence    mass     pseudopotential
        Al             3.00    26.98100     Al( 1.00)
        S              6.00    32.06500     S ( 1.00)

      2 Sym. Ops. (no inversion) found



   Cartesian axes

     site n.     atom                  positions (alat units)
         1           S   tau(   1) = (   0.5771561   0.0000000   0.0000000  )
         2           Al  tau(   2) = (   0.0000000   0.0000000   0.3769798  )
         3           Al  tau(   3) = (   0.0000000   0.0000000   1.1783078  )
         4           S   tau(   4) = (   0.5771561   0.0000000   1.5552638  )
         5           S   tau(   5) = (   1.1543123   0.0000000   2.5344855  )
         6           Al  tau(   6) = (   0.5771561   0.0000000   2.9115791  )
         7           Al  tau(   7) = (   0.5771561   0.0000000   3.7126540  )
         8           S   tau(   8) = (   1.1543123   0.0000000   4.0897110  )

     number of k points=   140

     Number of k-points >= 100: set verbosity='high' to print them.

     Dense  grid:    63569 G-vectors     FFT dimensions: (  32,  32, 160)

     Estimated max dynamical RAM per process >      92.43 MB

     Estimated total dynamical RAM >       1.44 GB

     Initial potential from superposition of free atoms

     starting charge      35.9907, renormalised to      36.0000


     %%%%%%%%%%%%%%%%%%%%%%%%%%%%%%%%%%%%%%%%%%%%%%%%%%%%%%%%%%%%%%%%%%%%%%%%
     %                                                                      %
     % You are using vdW-DF, which was implemented by the Thonhauser group. %
     % Please cite the following two papers that made this development      %
     % possible and the two reviews that describe the various versions:     %
     %                                                                      %
     %   T. Thonhauser et al., PRL 115, 136402 (2015).                      %
     %   T. Thonhauser et al., PRB 76, 125112 (2007).                       %
     %   K. Berland et al., Rep. Prog. Phys. 78, 066501 (2015).             %
     %   D.C. Langreth et al., J. Phys.: Condens. Matter 21, 084203 (2009). %
     %                                                                      %
     %                                                                      %
     % If you are calculating the stress with vdW-DF, please also cite:     %
     %                                                                      %
     %   R. Sabatini et al., J. Phys.: Condens. Matter 24, 424209 (2012).   %
     %                                                                      %
     %%%%%%%%%%%%%%%%%%%%%%%%%%%%%%%%%%%%%%%%%%%%%%%%%%%%%%%%%%%%%%%%%%%%%%%%


     Starting wfcs are   32 randomized atomic wfcs +   38 random wfcs
     Checking if some PAW data can be deallocated... 

     total cpu time spent up to now is       12.8 secs

     Self-consistent Calculation

     iteration #  1     ecut=    60.00 Ry     beta= 0.50
     Davidson diagonalization with overlap
     ethr =  1.00E-02,  avg # of iterations =  8.3

     Threshold (ethr) on eigenvalues was too large:
     Diagonalizing with lowered threshold

     Davidson diagonalization with overlap
     ethr =  9.44E-04,  avg # of iterations =  1.0

     total cpu time spent up to now is       95.8 secs

     total energy              =    -421.89129548 Ry
     estimated scf accuracy    <       0.33966810 Ry

     iteration #  2     ecut=    60.00 Ry     beta= 0.50
     Davidson diagonalization with overlap
     ethr =  9.44E-04,  avg # of iterations =  1.3

     total cpu time spent up to now is      118.6 secs

     total energy              =    -421.92505170 Ry
     estimated scf accuracy    <       0.06922541 Ry

     iteration #  3     ecut=    60.00 Ry     beta= 0.50
     Davidson diagonalization with overlap
     ethr =  1.92E-04,  avg # of iterations =  2.7

     total cpu time spent up to now is      145.2 secs

     total energy              =    -421.93557146 Ry
     estimated scf accuracy    <       0.08920602 Ry

     iteration #  4     ecut=    60.00 Ry     beta= 0.50
     Davidson diagonalization with overlap
     ethr =  1.92E-04,  avg # of iterations =  1.2

     total cpu time spent up to now is      167.7 secs

     total energy              =    -421.94868688 Ry
     estimated scf accuracy    <       0.00248780 Ry

     iteration #  5     ecut=    60.00 Ry     beta= 0.50
     Davidson diagonalization with overlap
     c_bands:  1 eigenvalues not converged
     c_bands:  1 eigenvalues not converged
     ethr =  6.91E-06,  avg # of iterations =  9.8

     total cpu time spent up to now is      204.0 secs

     total energy              =    -421.94862972 Ry
     estimated scf accuracy    <       0.00141529 Ry

     iteration #  6     ecut=    60.00 Ry     beta= 0.50
     Davidson diagonalization with overlap
     ethr =  3.93E-06,  avg # of iterations =  3.0

     total cpu time spent up to now is      229.7 secs

     total energy              =    -421.94881641 Ry
     estimated scf accuracy    <       0.00005696 Ry

     iteration #  7     ecut=    60.00 Ry     beta= 0.50
     Davidson diagonalization with overlap
     ethr =  1.58E-07,  avg # of iterations =  1.1

     total cpu time spent up to now is      252.1 secs

     total energy              =    -421.94882099 Ry
     estimated scf accuracy    <       0.00001367 Ry

     iteration #  8     ecut=    60.00 Ry     beta= 0.50
     Davidson diagonalization with overlap
     ethr =  3.80E-08,  avg # of iterations =  1.3

     total cpu time spent up to now is      274.9 secs

     total energy              =    -421.94882358 Ry
     estimated scf accuracy    <       0.00000162 Ry

     iteration #  9     ecut=    60.00 Ry     beta= 0.50
     Davidson diagonalization with overlap
     ethr =  4.50E-09,  avg # of iterations =  1.0

     total cpu time spent up to now is      297.1 secs

     total energy              =    -421.94882382 Ry
     estimated scf accuracy    <       0.00000004 Ry

     iteration # 10     ecut=    60.00 Ry     beta= 0.50
     Davidson diagonalization with overlap
     ethr =  1.04E-10,  avg # of iterations =  1.3

     total cpu time spent up to now is      320.0 secs

     End of self-consistent calculation

     Number of k-points >= 100: set verbosity='high' to print the bands.

     highest occupied, lowest unoccupied level (ev):     5.4493    6.9305

!    total energy              =    -421.94882382 Ry

     total all-electron energy =     -5134.924427 Ry
     estimated scf accuracy    <          7.9E-09 Ry

     The total energy is the sum of the following terms:
     one-electron contribution =       6.79856920 Ry
     hartree contribution      =      15.83908245 Ry
     xc contribution           =     -31.40669612 Ry
     ewald contribution        =     -91.58374684 Ry
     one-center paw contrib.   =    -321.59603252 Ry

     convergence has been achieved in  10 iterations

     Writing all to output data dir ./work/Al2S2.save/
 
     init_run     :     10.56s CPU     12.62s WALL (       1 calls)
     electrons    :    241.26s CPU    307.21s WALL (       1 calls)

     Called by init_run:
     wfcinit      :      6.00s CPU      7.97s WALL (       1 calls)
     potinit      :      4.41s CPU      4.45s WALL (       1 calls)
     hinit0       :      0.10s CPU      0.14s WALL (       1 calls)

     Called by electrons:
     c_bands      :    215.09s CPU    270.29s WALL (      11 calls)
     sum_band     :     24.42s CPU     35.03s WALL (      11 calls)
     v_of_rho     :      4.65s CPU      4.77s WALL (      11 calls)
     newd         :      0.42s CPU      0.44s WALL (      11 calls)
     PAW_pot      :      1.07s CPU      1.11s WALL (      11 calls)
     mix_rho      :      0.02s CPU      0.02s WALL (      11 calls)
     vdW_kernel   :      4.26s CPU      4.27s WALL (       1 calls)

     Called by c_bands:
     init_us_2    :      2.45s CPU      2.57s WALL (    3220 calls)
     init_us_2:cp :      2.44s CPU      2.56s WALL (    3220 calls)
     cegterg      :    203.58s CPU    258.68s WALL (    1540 calls)

     Called by *egterg:
     cdiaghg      :     25.90s CPU     26.59s WALL (    5880 calls)
     h_psi        :    122.87s CPU    175.68s WALL (    6160 calls)
     s_psi        :      9.33s CPU      9.80s WALL (    6160 calls)
     g_psi        :      0.29s CPU      0.30s WALL (    4480 calls)

     Called by h_psi:
     h_psi:calbec :     12.94s CPU     16.49s WALL (    6160 calls)
     vloc_psi     :     93.80s CPU    142.26s WALL (    6160 calls)
     add_vuspsi   :     15.00s CPU     15.77s WALL (    6160 calls)

     General routines
     calbec       :     16.37s CPU     21.06s WALL (    7700 calls)
     fft          :      0.16s CPU      0.24s WALL (     672 calls)
     ffts         :      0.00s CPU      0.00s WALL (      11 calls)
     fftw         :    107.84s CPU    163.39s WALL (  640836 calls)
 
     Parallel routines
 
     PWSCF        :   4m12.82s CPU   5m22.66s WALL

 
   This run was terminated on:  13:18:14  18Jun2023            

=------------------------------------------------------------------------------=
   JOB DONE.
=------------------------------------------------------------------------------=
