
     Program PWSCF v.7.0 starts on 17Jun2023 at 12:19:47 

     This program is part of the open-source Quantum ESPRESSO suite
     for quantum simulation of materials; please cite
         "P. Giannozzi et al., J. Phys.:Condens. Matter 21 395502 (2009);
         "P. Giannozzi et al., J. Phys.:Condens. Matter 29 465901 (2017);
         "P. Giannozzi et al., J. Chem. Phys. 152 154105 (2020);
          URL http://www.quantum-espresso.org", 
     in publications or presentations arising from this work. More details at
     http://www.quantum-espresso.org/quote

     Parallel version (MPI), running on    16 processors

     MPI processes distributed on     1 nodes
     R & G space division:  proc/nbgrp/npool/nimage =      16
     8236 MiB available memory on the printing compute node when the environment starts
 
     Waiting for input...
     Reading input from standard input

     Current dimensions of program PWSCF are:
     Max number of different atomic species (ntypx) = 10
     Max number of k-points (npk) =  40000
     Max angular momentum in pseudopotentials (lmaxx) =  4
     Message from routine volume:
     axis vectors are left-handed
     file Al.pbe-n-kjpaw_psl.1.0.0.UPF: wavefunction(s)  3S 3P renormalized
     file S.pbe-n-kjpaw_psl.1.0.0.UPF: wavefunction(s)  3S 3P renormalized
     Message from routine setup:
     using ibrav=0 with symmetry is DISCOURAGED, use correct ibrav instead

     Subspace diagonalization in iterative solution of the eigenvalue problem:
     a serial algorithm will be used

 
     Parallelization info
     --------------------
     sticks:   dense  smooth     PW     G-vecs:    dense   smooth      PW
     Min          39      39     12                 4603     4603     812
     Max          40      40     13                 4609     4609     831
     Sum         625     625    199                73689    73689   13117
 
     Using Slab Decomposition
 


     bravais-lattice index     =            0
     lattice parameter (alat)  =       6.1344  a.u.
     unit-cell volume          =    1175.3558 (a.u.)^3
     number of atoms/cell      =            8
     number of atomic types    =            2
     number of electrons       =        36.00
     number of Kohn-Sham states=           70
     kinetic-energy cutoff     =      60.0000  Ry
     charge density cutoff     =     240.0000  Ry
     scf convergence threshold =      1.0E-08
     mixing beta               =       0.5000
     number of iterations used =            8  plain     mixing
     Exchange-correlation= SLA  PW   PBX  PBC
                           (   1   4   3   4   0   0   0)

     celldm(1)=   6.134387  celldm(2)=   0.000000  celldm(3)=   0.000000
     celldm(4)=   0.000000  celldm(5)=   0.000000  celldm(6)=   0.000000

     crystal axes: (cart. coord. in units of alat)
               a(1) = (   0.865734   0.500504   0.000000 )  
               a(2) = (   0.865734  -0.500504   0.000000 )  
               a(3) = (   0.000000   0.000000   5.875350 )  

     reciprocal axes: (cart. coord. in units 2 pi/alat)
               b(1) = (  0.577544  0.998993  0.000000 )  
               b(2) = (  0.577544 -0.998993  0.000000 )  
               b(3) = (  0.000000  0.000000  0.170203 )  


     PseudoPot. # 1 for Al read from file:
     /home/mainadmin/research/danu/pseudo/Al.pbe-n-kjpaw_psl.1.0.0.UPF
     MD5 check sum: 502b6b27b9c6270cab5dd1084b96fa6d
     Pseudo is Projector augmented-wave + core cor, Zval =  3.0
     Generated using &quot;atomic&quot; code by A. Dal Corso  v.6.3
     Shape of augmentation charge: PSQ
     Using radial grid of 1135 points,  6 beta functions with: 
                l(1) =   0
                l(2) =   0
                l(3) =   1
                l(4) =   1
                l(5) =   2
                l(6) =   2
     Q(r) pseudized with 0 coefficients 


     PseudoPot. # 2 for S  read from file:
     /home/mainadmin/research/danu/pseudo/S.pbe-n-kjpaw_psl.1.0.0.UPF
     MD5 check sum: fb45dfebcf3e72a4e1bd4a866ec2e262
     Pseudo is Projector augmented-wave + core cor, Zval =  6.0
     Generated using &quot;atomic&quot; code by A. Dal Corso  v.6.3
     Shape of augmentation charge: PSQ
     Using radial grid of 1151 points,  6 beta functions with: 
                l(1) =   0
                l(2) =   0
                l(3) =   1
                l(4) =   1
                l(5) =   2
                l(6) =   2
     Q(r) pseudized with 0 coefficients 


     atomic species   valence    mass     pseudopotential
        Al             3.00    26.98100     Al( 1.00)
        S              6.00    32.06500     S ( 1.00)

      2 Sym. Ops. (no inversion) found



   Cartesian axes

     site n.     atom                  positions (alat units)
         1           S   tau(   1) = (   1.1543123   0.0000000   0.0000000  )
         2           Al  tau(   2) = (   0.5771561   0.0000000   0.3774354  )
         3           Al  tau(   3) = (   0.5771561   0.0000000   1.1798169  )
         4           S   tau(   4) = (   1.1543123   0.0000000   1.5570966  )
         5           S   tau(   5) = (   1.1543123   0.0000000   2.9370339  )
         6           Al  tau(   6) = (   0.5771561   0.0000000   3.3141800  )
         7           Al  tau(   7) = (   0.5771561   0.0000000   4.1177659  )
         8           S   tau(   8) = (   1.1543123   0.0000000   4.4954130  )

     number of k points=   140

     Number of k-points >= 100: set verbosity='high' to print them.

     Dense  grid:    73689 G-vectors     FFT dimensions: (  32,  32, 180)

     Estimated max dynamical RAM per process >     106.76 MB

     Estimated total dynamical RAM >       1.67 GB

     Initial potential from superposition of free atoms

     starting charge      35.9907, renormalised to      36.0000
     Starting wfcs are   32 randomized atomic wfcs +   38 random wfcs
     Checking if some PAW data can be deallocated... 

     total cpu time spent up to now is        9.4 secs

     Self-consistent Calculation

     iteration #  1     ecut=    60.00 Ry     beta= 0.50
     Davidson diagonalization with overlap
     ethr =  1.00E-02,  avg # of iterations =  8.1

     Threshold (ethr) on eigenvalues was too large:
     Diagonalizing with lowered threshold

     Davidson diagonalization with overlap
     ethr =  9.31E-04,  avg # of iterations =  1.0

     total cpu time spent up to now is      101.7 secs

     total energy              =    -423.53330215 Ry
     estimated scf accuracy    <       0.33458315 Ry

     iteration #  2     ecut=    60.00 Ry     beta= 0.50
     Davidson diagonalization with overlap
     ethr =  9.29E-04,  avg # of iterations =  1.4

     total cpu time spent up to now is      127.2 secs

     total energy              =    -423.57295869 Ry
     estimated scf accuracy    <       0.04207886 Ry

     iteration #  3     ecut=    60.00 Ry     beta= 0.50
     Davidson diagonalization with overlap
     ethr =  1.17E-04,  avg # of iterations =  6.2

     total cpu time spent up to now is      161.9 secs

     total energy              =    -423.57531983 Ry
     estimated scf accuracy    <       0.06288540 Ry

     iteration #  4     ecut=    60.00 Ry     beta= 0.50
     Davidson diagonalization with overlap
     ethr =  1.17E-04,  avg # of iterations =  1.9

     total cpu time spent up to now is      188.5 secs

     total energy              =    -423.58507715 Ry
     estimated scf accuracy    <       0.00293510 Ry

     iteration #  5     ecut=    60.00 Ry     beta= 0.50
     Davidson diagonalization with overlap
     c_bands:  1 eigenvalues not converged
     ethr =  8.15E-06,  avg # of iterations =  9.7

     total cpu time spent up to now is      228.4 secs

     total energy              =    -423.58491996 Ry
     estimated scf accuracy    <       0.00373344 Ry

     iteration #  6     ecut=    60.00 Ry     beta= 0.50
     Davidson diagonalization with overlap
     ethr =  8.15E-06,  avg # of iterations =  3.3

     total cpu time spent up to now is      257.4 secs

     total energy              =    -423.58534620 Ry
     estimated scf accuracy    <       0.00002564 Ry

     iteration #  7     ecut=    60.00 Ry     beta= 0.50
     Davidson diagonalization with overlap
     ethr =  7.12E-08,  avg # of iterations =  3.4

     total cpu time spent up to now is      285.4 secs

     total energy              =    -423.58534867 Ry
     estimated scf accuracy    <       0.00000069 Ry

     iteration #  8     ecut=    60.00 Ry     beta= 0.50
     Davidson diagonalization with overlap
     ethr =  1.90E-09,  avg # of iterations =  1.1

     total cpu time spent up to now is      310.3 secs

     total energy              =    -423.58534879 Ry
     estimated scf accuracy    <       0.00000019 Ry

     iteration #  9     ecut=    60.00 Ry     beta= 0.50
     Davidson diagonalization with overlap
     ethr =  5.28E-10,  avg # of iterations =  1.2

     total cpu time spent up to now is      335.3 secs

     total energy              =    -423.58534883 Ry
     estimated scf accuracy    <       0.00000007 Ry

     iteration # 10     ecut=    60.00 Ry     beta= 0.50
     Davidson diagonalization with overlap
     ethr =  2.00E-10,  avg # of iterations =  1.5

     total cpu time spent up to now is      360.9 secs

     total energy              =    -423.58534884 Ry
     estimated scf accuracy    <       0.00000002 Ry

     iteration # 11     ecut=    60.00 Ry     beta= 0.50
     Davidson diagonalization with overlap
     ethr =  4.78E-11,  avg # of iterations =  1.0

     total cpu time spent up to now is      385.6 secs

     End of self-consistent calculation

     Number of k-points >= 100: set verbosity='high' to print the bands.

     highest occupied, lowest unoccupied level (ev):     3.9049    5.4330

!    total energy              =    -423.58534884 Ry

     total all-electron energy =     -5136.560952 Ry
     estimated scf accuracy    <          6.0E-10 Ry

     The total energy is the sum of the following terms:
     one-electron contribution =     -16.17804378 Ry
     hartree contribution      =      25.20886698 Ry
     xc contribution           =     -31.21895289 Ry
     ewald contribution        =     -78.04420744 Ry
     one-center paw contrib.   =    -323.35301171 Ry

     convergence has been achieved in  11 iterations

     Writing all to output data dir ./work/Al2S2.save/
 
     init_run     :      7.26s CPU      9.29s WALL (       1 calls)
     electrons    :    304.27s CPU    376.21s WALL (       1 calls)

     Called by init_run:
     wfcinit      :      6.98s CPU      8.92s WALL (       1 calls)
     potinit      :      0.12s CPU      0.14s WALL (       1 calls)
     hinit0       :      0.11s CPU      0.14s WALL (       1 calls)

     Called by electrons:
     c_bands      :    271.10s CPU    331.39s WALL (      12 calls)
     sum_band     :     31.47s CPU     43.04s WALL (      12 calls)
     v_of_rho     :      0.07s CPU      0.07s WALL (      12 calls)
     newd         :      0.51s CPU      0.56s WALL (      12 calls)
     PAW_pot      :      1.20s CPU      1.26s WALL (      12 calls)
     mix_rho      :      0.03s CPU      0.03s WALL (      12 calls)

     Called by c_bands:
     init_us_2    :      3.33s CPU      3.47s WALL (    3500 calls)
     init_us_2:cp :      3.32s CPU      3.46s WALL (    3500 calls)
     cegterg      :    256.83s CPU    317.02s WALL (    1680 calls)

     Called by *egterg:
     cdiaghg      :     30.00s CPU     30.79s WALL (    7110 calls)
     h_psi        :    157.33s CPU    215.76s WALL (    7390 calls)
     s_psi        :     15.72s CPU     15.88s WALL (    7390 calls)
     g_psi        :      0.30s CPU      0.31s WALL (    5570 calls)

     Called by h_psi:
     h_psi:calbec :     16.66s CPU     20.60s WALL (    7390 calls)
     vloc_psi     :    116.52s CPU    170.21s WALL (    7390 calls)
     add_vuspsi   :     22.70s CPU     23.48s WALL (    7390 calls)

     General routines
     calbec       :     21.32s CPU     26.44s WALL (    9070 calls)
     fft          :      0.05s CPU      0.06s WALL (     133 calls)
     ffts         :      0.00s CPU      0.01s WALL (      12 calls)
     fftw         :    133.71s CPU    194.90s WALL (  695064 calls)
 
     Parallel routines
 
     PWSCF        :   5m12.65s CPU   6m28.45s WALL

 
   This run was terminated on:  12:26:15  17Jun2023            

=------------------------------------------------------------------------------=
   JOB DONE.
=------------------------------------------------------------------------------=
