
     Program BANDS v.7.0 starts on 17Jun2023 at 12:31:12 

     This program is part of the open-source Quantum ESPRESSO suite
     for quantum simulation of materials; please cite
         "P. Giannozzi et al., J. Phys.:Condens. Matter 21 395502 (2009);
         "P. Giannozzi et al., J. Phys.:Condens. Matter 29 465901 (2017);
         "P. Giannozzi et al., J. Chem. Phys. 152 154105 (2020);
          URL http://www.quantum-espresso.org", 
     in publications or presentations arising from this work. More details at
     http://www.quantum-espresso.org/quote

     Parallel version (MPI), running on    16 processors

     MPI processes distributed on     1 nodes
     R & G space division:  proc/nbgrp/npool/nimage =      16
     5804 MiB available memory on the printing compute node when the environment starts
 

     Reading xml data from directory:

     ./work/Al2S2.save/
     Message from routine volume:
     axis vectors are left-handed
     file Al.pbe-n-kjpaw_psl.1.0.0.UPF: wavefunction(s)  3S 3P renormalized
     file S.pbe-n-kjpaw_psl.1.0.0.UPF: wavefunction(s)  3S 3P renormalized

     IMPORTANT: XC functional enforced from input :
     Exchange-correlation= PBE
                           (   1   4   3   4   0   0   0)
     Any further DFT definition will be discarded
     Please, verify this is what you really want

 
     Parallelization info
     --------------------
     sticks:   dense  smooth     PW     G-vecs:    dense   smooth      PW
     Min          39      39     11                 4603     4603     731
     Max          40      40     12                 4609     4609     750
     Sum         625     625    187                73689    73689   11939
 
     Using Slab Decomposition
 
     Reading collected, re-writing distributed wavefunctions
     high-symmetry point:  0.0000 0.0000 0.0000   x coordinate   0.0000
     high-symmetry point:  0.5775 0.3325 0.0000   x coordinate   0.6664
     high-symmetry point:  0.5775 0.0000 0.0000   x coordinate   0.9990
     high-symmetry point:  0.0000 0.0000 0.0000   x coordinate   1.5765

     Plottable bands (eV) written to file AA.bands.gnu
     Bands written to file AA.bands

 **************************************************************************

                    xk=(   0.00000,   0.00000,   0.00000  )

     point group C_s (m)    
     there are  2 classes
     the character table:

       E     s    
A'     1.00  1.00
A''    1.00 -1.00

     the symmetry operations in each class and the name of the first element:

     E        1
                                                                 
     s        2
                                                                 

     Band symmetry, C_s (m)     point group:

     e(  1 -  1) =    -10.03305  eV     1   --> A'             
     e(  2 -  2) =    -10.02040  eV     1   --> A'             
     e(  3 -  3) =     -9.93237  eV     1   --> A'             
     e(  4 -  4) =     -9.91878  eV     1   --> A'             
     e(  5 -  5) =     -2.48215  eV     1   --> A'             
     e(  6 -  6) =     -2.41641  eV     1   --> A'             
     e(  7 -  7) =     -0.48546  eV     1   --> A'             
     e(  8 -  8) =     -0.27133  eV     1   --> A'             
     e(  9 -  9) =      2.47113  eV     1   --> A'             
     e( 10 - 10) =      2.82485  eV     1   --> A'             
     e( 11 - 11) =      3.85992  eV     1   --> A''            
     e( 12 - 12) =      3.86533  eV     1   --> A''            
     e( 13 - 13) =      3.87009  eV     1   --> A'             
     e( 14 - 14) =      3.87549  eV     1   --> A'             
     e( 15 - 15) =      3.88917  eV     1   --> A''            
     e( 16 - 16) =      3.89489  eV     1   --> A''            
     e( 17 - 17) =      3.89921  eV     1   --> A'             
     e( 18 - 18) =      3.90492  eV     1   --> A'             
     e( 19 - 19) =      7.41962  eV     1   --> A'             
     e( 20 - 20) =      8.32377  eV     1   --> A'             
     e( 21 - 21) =     10.23512  eV     1   --> A'             
     e( 22 - 22) =     10.25874  eV     1   --> A'             
     e( 23 - 23) =     10.31410  eV     1   --> A'             
     e( 24 - 24) =     10.37023  eV     1   --> A'             
     e( 25 - 25) =     10.48611  eV     1   --> A'             
     e( 26 - 26) =     11.18118  eV     1   --> A''            
     e( 27 - 27) =     11.18851  eV     1   --> A''            
     e( 28 - 28) =     11.20376  eV     1   --> A'             
     e( 29 - 29) =     11.21110  eV     1   --> A'             
     e( 30 - 30) =     11.70503  eV     1   --> A''            
     e( 31 - 31) =     11.71484  eV     1   --> A''            
     e( 32 - 32) =     11.72827  eV     1   --> A'             
     e( 33 - 33) =     11.73810  eV     1   --> A'             
     e( 34 - 34) =     11.90691  eV     1   --> A'             
     e( 35 - 35) =     13.75201  eV     1   --> A'             
     e( 36 - 36) =     14.17802  eV     1   --> A''            
     e( 37 - 37) =     14.19855  eV     1   --> A'             
     e( 38 - 38) =     14.21434  eV     1   --> A''            
     e( 39 - 39) =     14.23491  eV     1   --> A'             
     e( 40 - 40) =     14.63610  eV     1   --> A'             
     e( 41 - 41) =     15.59513  eV     1   --> A''            
     e( 42 - 42) =     15.61225  eV     1   --> A'             
     e( 43 - 43) =     15.69188  eV     1   --> A''            
     e( 44 - 44) =     15.70894  eV     1   --> A'             
     e( 45 - 45) =     16.05947  eV     1   --> A''            
     e( 46 - 46) =     16.07753  eV     1   --> A'             
     e( 47 - 47) =     16.10666  eV     1   --> A''            
     e( 48 - 48) =     16.12472  eV     1   --> A'             
     e( 49 - 49) =     16.81604  eV     1   --> A'             
     e( 50 - 50) =     17.22601  eV     1   --> A'             
     e( 51 - 51) =     18.19975  eV     1   --> A'             
     e( 52 - 52) =     18.31863  eV     1   --> A'             
     e( 53 - 53) =     18.44195  eV     1   --> A'             
     e( 54 - 54) =     18.66737  eV     1   --> A'             
     e( 55 - 55) =     18.73639  eV     1   --> A'             
     e( 56 - 56) =     19.32202  eV     1   --> A'             
     e( 57 - 57) =     19.79971  eV     1   --> A''            
     e( 58 - 58) =     19.81938  eV     1   --> A'             
     e( 59 - 59) =     19.90942  eV     1   --> A''            
     e( 60 - 60) =     19.92878  eV     1   --> A'             
     e( 61 - 61) =     20.84488  eV     1   --> A''            
     e( 62 - 62) =     20.86468  eV     1   --> A'             
     e( 63 - 63) =     20.90782  eV     1   --> A'             
     e( 64 - 64) =     21.13847  eV     1   --> A''            
     e( 65 - 65) =     21.15747  eV     1   --> A'             
     e( 66 - 66) =     21.38222  eV     1   --> A'             
     e( 67 - 67) =     22.03782  eV     1   --> A'             
     e( 68 - 68) =     22.48645  eV     1   --> A'             
     e( 69 - 69) =     24.22609  eV     1   --> A'             
     e( 70 - 70) =     24.26957  eV     1   --> A''            

 **************************************************************************

 **************************************************************************

                    xk=(   0.01925,   0.01108,   0.00000  )

     point group C_1 (1)    
     there are  1 classes
     the character table:

       E    
A      1.00

     the symmetry operations in each class and the name of the first element:

     E        1
                                                                 

     Band symmetry, C_1 (1)     point group:

     e(  1 -  1) =    -10.02814  eV     1   --> A              
     e(  2 -  2) =    -10.01549  eV     1   --> A              
     e(  3 -  3) =     -9.92756  eV     1   --> A              
     e(  4 -  4) =     -9.91397  eV     1   --> A              
     e(  5 -  5) =     -2.47650  eV     1   --> A              
     e(  6 -  6) =     -2.41078  eV     1   --> A              
     e(  7 -  7) =     -0.48067  eV     1   --> A              
     e(  8 -  8) =     -0.26670  eV     1   --> A              
     e(  9 -  9) =      2.47390  eV     1   --> A              
     e( 10 - 10) =      2.82700  eV     1   --> A              
     e( 11 - 11) =      3.83419  eV     1   --> A              
     e( 12 - 12) =      3.83978  eV     1   --> A              
     e( 13 - 13) =      3.85576  eV     1   --> A              
     e( 14 - 14) =      3.86117  eV     1   --> A              
     e( 15 - 15) =      3.86127  eV     1   --> A              
     e( 16 - 16) =      3.86751  eV     1   --> A              
     e( 17 - 17) =      3.88508  eV     1   --> A              
     e( 18 - 18) =      3.89082  eV     1   --> A              
     e( 19 - 19) =      7.42824  eV     1   --> A              
     e( 20 - 20) =      8.33048  eV     1   --> A              
     e( 21 - 21) =     10.26489  eV     1   --> A              
     e( 22 - 22) =     10.28752  eV     1   --> A              
     e( 23 - 23) =     10.31003  eV     1   --> A              
     e( 24 - 24) =     10.39677  eV     1   --> A              
     e( 25 - 25) =     10.51205  eV     1   --> A              
     e( 26 - 26) =     11.16699  eV     1   --> A              
     e( 27 - 27) =     11.17224  eV     1   --> A              
     e( 28 - 28) =     11.20173  eV     1   --> A              
     e( 29 - 29) =     11.20811  eV     1   --> A              
     e( 30 - 30) =     11.70083  eV     1   --> A              
     e( 31 - 31) =     11.71215  eV     1   --> A              
     e( 32 - 32) =     11.73140  eV     1   --> A              
     e( 33 - 33) =     11.74167  eV     1   --> A              
     e( 34 - 34) =     11.90183  eV     1   --> A              
     e( 35 - 35) =     13.76523  eV     1   --> A              
     e( 36 - 36) =     14.11960  eV     1   --> A              
     e( 37 - 37) =     14.15982  eV     1   --> A              
     e( 38 - 38) =     14.16322  eV     1   --> A              
     e( 39 - 39) =     14.20042  eV     1   --> A              
     e( 40 - 40) =     14.63939  eV     1   --> A              
     e( 41 - 41) =     15.57948  eV     1   --> A              
     e( 42 - 42) =     15.59439  eV     1   --> A              
     e( 43 - 43) =     15.62815  eV     1   --> A              
     e( 44 - 44) =     15.68577  eV     1   --> A              
     e( 45 - 45) =     16.08960  eV     1   --> A              
     e( 46 - 46) =     16.09221  eV     1   --> A              
     e( 47 - 47) =     16.11557  eV     1   --> A              
     e( 48 - 48) =     16.14274  eV     1   --> A              
     e( 49 - 49) =     16.89483  eV     1   --> A              
     e( 50 - 50) =     17.29210  eV     1   --> A              
     e( 51 - 51) =     18.23958  eV     1   --> A              
     e( 52 - 52) =     18.35405  eV     1   --> A              
     e( 53 - 53) =     18.45819  eV     1   --> A              
     e( 54 - 54) =     18.68999  eV     1   --> A              
     e( 55 - 55) =     18.78287  eV     1   --> A              
     e( 56 - 56) =     19.36132  eV     1   --> A              
     e( 57 - 57) =     19.79376  eV     1   --> A              
     e( 58 - 58) =     19.82725  eV     1   --> A              
     e( 59 - 59) =     19.90932  eV     1   --> A              
     e( 60 - 60) =     19.93706  eV     1   --> A              
     e( 61 - 61) =     20.76355  eV     1   --> A              
     e( 62 - 62) =     20.84266  eV     1   --> A              
     e( 63 - 63) =     20.94036  eV     1   --> A              
     e( 64 - 64) =     21.06163  eV     1   --> A              
     e( 65 - 65) =     21.13931  eV     1   --> A              
     e( 66 - 66) =     21.48378  eV     1   --> A              
     e( 67 - 67) =     22.05363  eV     1   --> A              
     e( 68 - 68) =     22.59739  eV     1   --> A              
     e( 69 - 69) =     24.04883  eV     1   --> A              
     e( 70 - 70) =     24.24551  eV     1   --> A              

 **************************************************************************

 **************************************************************************

                    xk=(   0.03850,   0.02217,   0.00000  )

     Band symmetry, C_1 (1)     point group:

     e(  1 -  1) =    -10.01342  eV     1   --> A              
     e(  2 -  2) =    -10.00078  eV     1   --> A              
     e(  3 -  3) =     -9.91315  eV     1   --> A              
     e(  4 -  4) =     -9.89957  eV     1   --> A              
     e(  5 -  5) =     -2.45955  eV     1   --> A              
     e(  6 -  6) =     -2.39392  eV     1   --> A              
     e(  7 -  7) =     -0.46633  eV     1   --> A              
     e(  8 -  8) =     -0.25285  eV     1   --> A              
     e(  9 -  9) =      2.48188  eV     1   --> A              
     e( 10 - 10) =      2.83299  eV     1   --> A              
     e( 11 - 11) =      3.74059  eV     1   --> A              
     e( 12 - 12) =      3.74690  eV     1   --> A              
     e( 13 - 13) =      3.76110  eV     1   --> A              
     e( 14 - 14) =      3.76891  eV     1   --> A              
     e( 15 - 15) =      3.83202  eV     1   --> A              
     e( 16 - 16) =      3.83748  eV     1   --> A              
     e( 17 - 17) =      3.86208  eV     1   --> A              
     e( 18 - 18) =      3.86785  eV     1   --> A              
     e( 19 - 19) =      7.45320  eV     1   --> A              
     e( 20 - 20) =      8.34938  eV     1   --> A              
     e( 21 - 21) =     10.29528  eV     1   --> A              
     e( 22 - 22) =     10.34948  eV     1   --> A              
     e( 23 - 23) =     10.36834  eV     1   --> A              
     e( 24 - 24) =     10.47203  eV     1   --> A              
     e( 25 - 25) =     10.58575  eV     1   --> A              
     e( 26 - 26) =     11.07033  eV     1   --> A              
     e( 27 - 27) =     11.10951  eV     1   --> A              
     e( 28 - 28) =     11.23389  eV     1   --> A              
     e( 29 - 29) =     11.24027  eV     1   --> A              
     e( 30 - 30) =     11.65280  eV     1   --> A              
     e( 31 - 31) =     11.66899  eV     1   --> A              
     e( 32 - 32) =     11.77447  eV     1   --> A              
     e( 33 - 33) =     11.79122  eV     1   --> A              
     e( 34 - 34) =     11.89191  eV     1   --> A              
     e( 35 - 35) =     13.78680  eV     1   --> A              
     e( 36 - 36) =     13.94665  eV     1   --> A              
     e( 37 - 37) =     13.99374  eV     1   --> A              
     e( 38 - 38) =     14.09244  eV     1   --> A              
     e( 39 - 39) =     14.13937  eV     1   --> A              
     e( 40 - 40) =     14.63119  eV     1   --> A              
     e( 41 - 41) =     15.43592  eV     1   --> A              
     e( 42 - 42) =     15.52401  eV     1   --> A              
     e( 43 - 43) =     15.55355  eV     1   --> A              
     e( 44 - 44) =     15.65068  eV     1   --> A              
     e( 45 - 45) =     16.03127  eV     1   --> A              
     e( 46 - 46) =     16.16560  eV     1   --> A              
     e( 47 - 47) =     16.21646  eV     1   --> A              
     e( 48 - 48) =     16.23636  eV     1   --> A              
     e( 49 - 49) =     17.10213  eV     1   --> A              
     e( 50 - 50) =     17.45552  eV     1   --> A              
     e( 51 - 51) =     18.35556  eV     1   --> A              
     e( 52 - 52) =     18.45950  eV     1   --> A              
     e( 53 - 53) =     18.50286  eV     1   --> A              
     e( 54 - 54) =     18.75665  eV     1   --> A              
     e( 55 - 55) =     18.91305  eV     1   --> A              
     e( 56 - 56) =     19.46442  eV     1   --> A              
     e( 57 - 57) =     19.74705  eV     1   --> A              
     e( 58 - 58) =     19.87889  eV     1   --> A              
     e( 59 - 59) =     19.88236  eV     1   --> A              
     e( 60 - 60) =     19.99454  eV     1   --> A              
     e( 61 - 61) =     20.58535  eV     1   --> A              
     e( 62 - 62) =     20.81997  eV     1   --> A              
     e( 63 - 63) =     20.86737  eV     1   --> A              
     e( 64 - 64) =     21.03287  eV     1   --> A              
     e( 65 - 65) =     21.12616  eV     1   --> A              
     e( 66 - 66) =     21.69008  eV     1   --> A              
     e( 67 - 67) =     22.09874  eV     1   --> A              
     e( 68 - 68) =     22.86312  eV     1   --> A              
     e( 69 - 69) =     23.78507  eV     1   --> A              
     e( 70 - 70) =     24.15172  eV     1   --> A              

 **************************************************************************

 **************************************************************************

                    xk=(   0.05775,   0.03325,   0.00000  )

     Band symmetry, C_1 (1)     point group:

     e(  1 -  1) =     -9.98895  eV     1   --> A              
     e(  2 -  2) =     -9.97633  eV     1   --> A              
     e(  3 -  3) =     -9.88919  eV     1   --> A              
     e(  4 -  4) =     -9.87564  eV     1   --> A              
     e(  5 -  5) =     -2.43139  eV     1   --> A              
     e(  6 -  6) =     -2.36592  eV     1   --> A              
     e(  7 -  7) =     -0.44255  eV     1   --> A              
     e(  8 -  8) =     -0.22990  eV     1   --> A              
     e(  9 -  9) =      2.49384  eV     1   --> A              
     e( 10 - 10) =      2.84089  eV     1   --> A              
     e( 11 - 11) =      3.59222  eV     1   --> A              
     e( 12 - 12) =      3.60015  eV     1   --> A              
     e( 13 - 13) =      3.60333  eV     1   --> A              
     e( 14 - 14) =      3.61281  eV     1   --> A              
     e( 15 - 15) =      3.79329  eV     1   --> A              
     e( 16 - 16) =      3.79882  eV     1   --> A              
     e( 17 - 17) =      3.82452  eV     1   --> A              
     e( 18 - 18) =      3.83034  eV     1   --> A              
     e( 19 - 19) =      7.49230  eV     1   --> A              
     e( 20 - 20) =      8.37745  eV     1   --> A              
     e( 21 - 21) =     10.26423  eV     1   --> A              
     e( 22 - 22) =     10.47340  eV     1   --> A              
     e( 23 - 23) =     10.48405  eV     1   --> A              
     e( 24 - 24) =     10.58355  eV     1   --> A              
     e( 25 - 25) =     10.69512  eV     1   --> A              
     e( 26 - 26) =     10.92359  eV     1   --> A              
     e( 27 - 27) =     11.01626  eV     1   --> A              
     e( 28 - 28) =     11.29267  eV     1   --> A              
     e( 29 - 29) =     11.29637  eV     1   --> A              
     e( 30 - 30) =     11.57597  eV     1   --> A              
     e( 31 - 31) =     11.59942  eV     1   --> A              
     e( 32 - 32) =     11.79917  eV     1   --> A              
     e( 33 - 33) =     11.88319  eV     1   --> A              
     e( 34 - 34) =     11.93049  eV     1   --> A              
     e( 35 - 35) =     13.67772  eV     1   --> A              
     e( 36 - 36) =     13.72913  eV     1   --> A              
     e( 37 - 37) =     13.88585  eV     1   --> A              
     e( 38 - 38) =     13.97107  eV     1   --> A              
     e( 39 - 39) =     14.06534  eV     1   --> A              
     e( 40 - 40) =     14.60679  eV     1   --> A              
     e( 41 - 41) =     15.18243  eV     1   --> A              
     e( 42 - 42) =     15.43735  eV     1   --> A              
     e( 43 - 43) =     15.49178  eV     1   --> A              
     e( 44 - 44) =     15.59216  eV     1   --> A              
     e( 45 - 45) =     15.97525  eV     1   --> A              
     e( 46 - 46) =     16.25339  eV     1   --> A              
     e( 47 - 47) =     16.30701  eV     1   --> A              
     e( 48 - 48) =     16.43270  eV     1   --> A              
     e( 49 - 49) =     17.39211  eV     1   --> A              
     e( 50 - 50) =     17.65800  eV     1   --> A              
     e( 51 - 51) =     18.53732  eV     1   --> A              
     e( 52 - 52) =     18.56338  eV     1   --> A              
     e( 53 - 53) =     18.63188  eV     1   --> A              
     e( 54 - 54) =     18.86123  eV     1   --> A              
     e( 55 - 55) =     19.10059  eV     1   --> A              
     e( 56 - 56) =     19.58316  eV     1   --> A              
     e( 57 - 57) =     19.68610  eV     1   --> A              
     e( 58 - 58) =     19.83486  eV     1   --> A              
     e( 59 - 59) =     19.96326  eV     1   --> A              
     e( 60 - 60) =     20.09121  eV     1   --> A              
     e( 61 - 61) =     20.42005  eV     1   --> A              
     e( 62 - 62) =     20.69014  eV     1   --> A              
     e( 63 - 63) =     20.79144  eV     1   --> A              
     e( 64 - 64) =     21.11231  eV     1   --> A              
     e( 65 - 65) =     21.17338  eV     1   --> A              
     e( 66 - 66) =     21.92932  eV     1   --> A              
     e( 67 - 67) =     22.16691  eV     1   --> A              
     e( 68 - 68) =     23.19523  eV     1   --> A              
     e( 69 - 69) =     23.48653  eV     1   --> A              
     e( 70 - 70) =     23.98649  eV     1   --> A              

 **************************************************************************

 **************************************************************************

                    xk=(   0.07701,   0.04434,   0.00000  )

     Band symmetry, C_1 (1)     point group:

     e(  1 -  1) =     -9.95485  eV     1   --> A              
     e(  2 -  2) =     -9.94224  eV     1   --> A              
     e(  3 -  3) =     -9.85581  eV     1   --> A              
     e(  4 -  4) =     -9.84228  eV     1   --> A              
     e(  5 -  5) =     -2.39214  eV     1   --> A              
     e(  6 -  6) =     -2.32689  eV     1   --> A              
     e(  7 -  7) =     -0.40952  eV     1   --> A              
     e(  8 -  8) =     -0.19806  eV     1   --> A              
     e(  9 -  9) =      2.50678  eV     1   --> A              
     e( 10 - 10) =      2.84497  eV     1   --> A              
     e( 11 - 11) =      3.39290  eV     1   --> A              
     e( 12 - 12) =      3.40472  eV     1   --> A              
     e( 13 - 13) =      3.40833  eV     1   --> A              
     e( 14 - 14) =      3.42126  eV     1   --> A              
     e( 15 - 15) =      3.73871  eV     1   --> A              
     e( 16 - 16) =      3.74436  eV     1   --> A              
     e( 17 - 17) =      3.77165  eV     1   --> A              
     e( 18 - 18) =      3.77757  eV     1   --> A              
     e( 19 - 19) =      7.54299  eV     1   --> A              
     e( 20 - 20) =      8.41121  eV     1   --> A              
     e( 21 - 21) =     10.20601  eV     1   --> A              
     e( 22 - 22) =     10.58731  eV     1   --> A              
     e( 23 - 23) =     10.61465  eV     1   --> A              
     e( 24 - 24) =     10.71287  eV     1   --> A              
     e( 25 - 25) =     10.77142  eV     1   --> A              
     e( 26 - 26) =     10.82104  eV     1   --> A              
     e( 27 - 27) =     10.91329  eV     1   --> A              
     e( 28 - 28) =     11.36459  eV     1   --> A              
     e( 29 - 29) =     11.37799  eV     1   --> A              
     e( 30 - 30) =     11.48175  eV     1   --> A              
     e( 31 - 31) =     11.51630  eV     1   --> A              
     e( 32 - 32) =     11.75747  eV     1   --> A              
     e( 33 - 33) =     12.01994  eV     1   --> A              
     e( 34 - 34) =     12.06891  eV     1   --> A              
     e( 35 - 35) =     13.43048  eV     1   --> A              
     e( 36 - 36) =     13.50561  eV     1   --> A              
     e( 37 - 37) =     13.80957  eV     1   --> A              
     e( 38 - 38) =     13.81694  eV     1   --> A              
     e( 39 - 39) =     14.05328  eV     1   --> A              
     e( 40 - 40) =     14.57811  eV     1   --> A              
     e( 41 - 41) =     14.90740  eV     1   --> A              
     e( 42 - 42) =     15.33639  eV     1   --> A              
     e( 43 - 43) =     15.40664  eV     1   --> A              
     e( 44 - 44) =     15.50917  eV     1   --> A              
     e( 45 - 45) =     15.93956  eV     1   --> A              
     e( 46 - 46) =     16.33740  eV     1   --> A              
     e( 47 - 47) =     16.39681  eV     1   --> A              
     e( 48 - 48) =     16.68140  eV     1   --> A              
     e( 49 - 49) =     17.73257  eV     1   --> A              
     e( 50 - 50) =     17.86108  eV     1   --> A              
     e( 51 - 51) =     18.61867  eV     1   --> A              
     e( 52 - 52) =     18.76531  eV     1   --> A              
     e( 53 - 53) =     18.86194  eV     1   --> A              
     e( 54 - 54) =     18.98147  eV     1   --> A              
     e( 55 - 55) =     19.30630  eV     1   --> A              
     e( 56 - 56) =     19.63578  eV     1   --> A              
     e( 57 - 57) =     19.64635  eV     1   --> A              
     e( 58 - 58) =     19.79343  eV     1   --> A              
     e( 59 - 59) =     20.05346  eV     1   --> A              
     e( 60 - 60) =     20.22033  eV     1   --> A              
     e( 61 - 61) =     20.31053  eV     1   --> A              
     e( 62 - 62) =     20.62942  eV     1   --> A              
     e( 63 - 63) =     20.78149  eV     1   --> A              
     e( 64 - 64) =     21.11881  eV     1   --> A              
     e( 65 - 65) =     21.34486  eV     1   --> A              
     e( 66 - 66) =     22.18787  eV     1   --> A              
     e( 67 - 67) =     22.24907  eV     1   --> A              
     e( 68 - 68) =     23.18818  eV     1   --> A              
     e( 69 - 69) =     23.54942  eV     1   --> A              
     e( 70 - 70) =     23.75693  eV     1   --> A              

 **************************************************************************

 **************************************************************************

                    xk=(   0.09626,   0.05542,   0.00000  )

     Band symmetry, C_1 (1)     point group:

     e(  1 -  1) =     -9.91125  eV     1   --> A              
     e(  2 -  2) =     -9.89868  eV     1   --> A              
     e(  3 -  3) =     -9.81315  eV     1   --> A              
     e(  4 -  4) =     -9.79966  eV     1   --> A              
     e(  5 -  5) =     -2.34199  eV     1   --> A              
     e(  6 -  6) =     -2.27705  eV     1   --> A              
     e(  7 -  7) =     -0.36750  eV     1   --> A              
     e(  8 -  8) =     -0.15768  eV     1   --> A              
     e(  9 -  9) =      2.51278  eV     1   --> A              
     e( 10 - 10) =      2.82538  eV     1   --> A              
     e( 11 - 11) =      3.15070  eV     1   --> A              
     e( 12 - 12) =      3.16608  eV     1   --> A              
     e( 13 - 13) =      3.19644  eV     1   --> A              
     e( 14 - 14) =      3.23140  eV     1   --> A              
     e( 15 - 15) =      3.66785  eV     1   --> A              
     e( 16 - 16) =      3.67367  eV     1   --> A              
     e( 17 - 17) =      3.70314  eV     1   --> A              
     e( 18 - 18) =      3.70920  eV     1   --> A              
     e( 19 - 19) =      7.60316  eV     1   --> A              
     e( 20 - 20) =      8.44772  eV     1   --> A              
     e( 21 - 21) =     10.10994  eV     1   --> A              
     e( 22 - 22) =     10.47836  eV     1   --> A              
     e( 23 - 23) =     10.73057  eV     1   --> A              
     e( 24 - 24) =     10.80805  eV     1   --> A              
     e( 25 - 25) =     10.83639  eV     1   --> A              
     e( 26 - 26) =     10.83990  eV     1   --> A              
     e( 27 - 27) =     10.93815  eV     1   --> A              
     e( 28 - 28) =     11.38174  eV     1   --> A              
     e( 29 - 29) =     11.42374  eV     1   --> A              
     e( 30 - 30) =     11.43692  eV     1   --> A              
     e( 31 - 31) =     11.47653  eV     1   --> A              
     e( 32 - 32) =     11.68797  eV     1   --> A              
     e( 33 - 33) =     12.20108  eV     1   --> A              
     e( 34 - 34) =     12.27359  eV     1   --> A              
     e( 35 - 35) =     13.18969  eV     1   --> A              
     e( 36 - 36) =     13.29663  eV     1   --> A              
     e( 37 - 37) =     13.64580  eV     1   --> A              
     e( 38 - 38) =     13.70095  eV     1   --> A              
     e( 39 - 39) =     14.09924  eV     1   --> A              
     e( 40 - 40) =     14.55037  eV     1   --> A              
     e( 41 - 41) =     14.63691  eV     1   --> A              
     e( 42 - 42) =     15.23047  eV     1   --> A              
     e( 43 - 43) =     15.30445  eV     1   --> A              
     e( 44 - 44) =     15.40241  eV     1   --> A              
     e( 45 - 45) =     15.92807  eV     1   --> A              
     e( 46 - 46) =     16.40533  eV     1   --> A              
     e( 47 - 47) =     16.47662  eV     1   --> A              
     e( 48 - 48) =     16.95911  eV     1   --> A              
     e( 49 - 49) =     18.04706  eV     1   --> A              
     e( 50 - 50) =     18.10438  eV     1   --> A              
     e( 51 - 51) =     18.64711  eV     1   --> A              
     e( 52 - 52) =     18.99548  eV     1   --> A              
     e( 53 - 53) =     19.04944  eV     1   --> A              
     e( 54 - 54) =     19.12210  eV     1   --> A              
     e( 55 - 55) =     19.49516  eV     1   --> A              
     e( 56 - 56) =     19.63939  eV     1   --> A              
     e( 57 - 57) =     19.67678  eV     1   --> A              
     e( 58 - 58) =     19.78382  eV     1   --> A              
     e( 59 - 59) =     20.13801  eV     1   --> A              
     e( 60 - 60) =     20.25002  eV     1   --> A              
     e( 61 - 61) =     20.37228  eV     1   --> A              
     e( 62 - 62) =     20.67240  eV     1   --> A              
     e( 63 - 63) =     20.85215  eV     1   --> A              
     e( 64 - 64) =     21.20748  eV     1   --> A              
     e( 65 - 65) =     21.51641  eV     1   --> A              
     e( 66 - 66) =     22.33362  eV     1   --> A              
     e( 67 - 67) =     22.46285  eV     1   --> A              
     e( 68 - 68) =     22.93314  eV     1   --> A              
     e( 69 - 69) =     23.48062  eV     1   --> A              
     e( 70 - 70) =     23.90438  eV     1   --> A              

 **************************************************************************

 **************************************************************************

                    xk=(   0.11551,   0.06651,   0.00000  )

     Band symmetry, C_1 (1)     point group:

     e(  1 -  1) =     -9.85837  eV     1   --> A              
     e(  2 -  2) =     -9.84583  eV     1   --> A              
     e(  3 -  3) =     -9.76142  eV     1   --> A              
     e(  4 -  4) =     -9.74797  eV     1   --> A              
     e(  5 -  5) =     -2.28122  eV     1   --> A              
     e(  6 -  6) =     -2.21667  eV     1   --> A              
     e(  7 -  7) =     -0.31690  eV     1   --> A              
     e(  8 -  8) =     -0.10922  eV     1   --> A              
     e(  9 -  9) =      2.48822  eV     1   --> A              
     e( 10 - 10) =      2.72261  eV     1   --> A              
     e( 11 - 11) =      2.88195  eV     1   --> A              
     e( 12 - 12) =      2.90011  eV     1   --> A              
     e( 13 - 13) =      2.99691  eV     1   --> A              
     e( 14 - 14) =      3.10470  eV     1   --> A              
     e( 15 - 15) =      3.58038  eV     1   --> A              
     e( 16 - 16) =      3.58646  eV     1   --> A              
     e( 17 - 17) =      3.61876  eV     1   --> A              
     e( 18 - 18) =      3.62500  eV     1   --> A              
     e( 19 - 19) =      7.67127  eV     1   --> A              
     e( 20 - 20) =      8.48477  eV     1   --> A              
     e( 21 - 21) =      9.97285  eV     1   --> A              
     e( 22 - 22) =     10.26213  eV     1   --> A              
     e( 23 - 23) =     10.68470  eV     1   --> A              
     e( 24 - 24) =     10.91572  eV     1   --> A              
     e( 25 - 25) =     10.92701  eV     1   --> A              
     e( 26 - 26) =     10.93506  eV     1   --> A              
     e( 27 - 27) =     11.01075  eV     1   --> A              
     e( 28 - 28) =     11.29180  eV     1   --> A              
     e( 29 - 29) =     11.39376  eV     1   --> A              
     e( 30 - 30) =     11.42557  eV     1   --> A              
     e( 31 - 31) =     11.56757  eV     1   --> A              
     e( 32 - 32) =     11.60651  eV     1   --> A              
     e( 33 - 33) =     12.41265  eV     1   --> A              
     e( 34 - 34) =     12.53242  eV     1   --> A              
     e( 35 - 35) =     12.98777  eV     1   --> A              
     e( 36 - 36) =     13.09536  eV     1   --> A              
     e( 37 - 37) =     13.54533  eV     1   --> A              
     e( 38 - 38) =     13.62388  eV     1   --> A              
     e( 39 - 39) =     14.15275  eV     1   --> A              
     e( 40 - 40) =     14.39578  eV     1   --> A              
     e( 41 - 41) =     14.52414  eV     1   --> A              
     e( 42 - 42) =     15.10896  eV     1   --> A              
     e( 43 - 43) =     15.21191  eV     1   --> A              
     e( 44 - 44) =     15.27504  eV     1   --> A              
     e( 45 - 45) =     15.93822  eV     1   --> A              
     e( 46 - 46) =     16.44898  eV     1   --> A              
     e( 47 - 47) =     16.53952  eV     1   --> A              
     e( 48 - 48) =     17.24135  eV     1   --> A              
     e( 49 - 49) =     18.21136  eV     1   --> A              
     e( 50 - 50) =     18.49646  eV     1   --> A              
     e( 51 - 51) =     18.64771  eV     1   --> A              
     e( 52 - 52) =     18.98706  eV     1   --> A              
     e( 53 - 53) =     19.13800  eV     1   --> A              
     e( 54 - 54) =     19.33228  eV     1   --> A              
     e( 55 - 55) =     19.66860  eV     1   --> A              
     e( 56 - 56) =     19.78066  eV     1   --> A              
     e( 57 - 57) =     19.80776  eV     1   --> A              
     e( 58 - 58) =     19.88258  eV     1   --> A              
     e( 59 - 59) =     20.17672  eV     1   --> A              
     e( 60 - 60) =     20.20425  eV     1   --> A              
     e( 61 - 61) =     20.53224  eV     1   --> A              
     e( 62 - 62) =     20.69025  eV     1   --> A              
     e( 63 - 63) =     21.07009  eV     1   --> A              
     e( 64 - 64) =     21.44914  eV     1   --> A              
     e( 65 - 65) =     21.62693  eV     1   --> A              
     e( 66 - 66) =     22.40597  eV     1   --> A              
     e( 67 - 67) =     22.74861  eV     1   --> A              
     e( 68 - 68) =     22.78547  eV     1   --> A              
     e( 69 - 69) =     23.18394  eV     1   --> A              
     e( 70 - 70) =     23.98207  eV     1   --> A              

 **************************************************************************

 **************************************************************************

                    xk=(   0.13476,   0.07759,   0.00000  )

     Band symmetry, C_1 (1)     point group:

     e(  1 -  1) =     -9.79646  eV     1   --> A              
     e(  2 -  2) =     -9.78395  eV     1   --> A              
     e(  3 -  3) =     -9.70087  eV     1   --> A              
     e(  4 -  4) =     -9.68747  eV     1   --> A              
     e(  5 -  5) =     -2.21018  eV     1   --> A              
     e(  6 -  6) =     -2.14616  eV     1   --> A              
     e(  7 -  7) =     -0.25829  eV     1   --> A              
     e(  8 -  8) =     -0.05340  eV     1   --> A              
     e(  9 -  9) =      2.37911  eV     1   --> A              
     e( 10 - 10) =      2.50878  eV     1   --> A              
     e( 11 - 11) =      2.59609  eV     1   --> A              
     e( 12 - 12) =      2.61714  eV     1   --> A              
     e( 13 - 13) =      2.87070  eV     1   --> A              
     e( 14 - 14) =      3.07656  eV     1   --> A              
     e( 15 - 15) =      3.47611  eV     1   --> A              
     e( 16 - 16) =      3.48262  eV     1   --> A              
     e( 17 - 17) =      3.51838  eV     1   --> A              
     e( 18 - 18) =      3.52486  eV     1   --> A              
     e( 19 - 19) =      7.74619  eV     1   --> A              
     e( 20 - 20) =      8.52070  eV     1   --> A              
     e( 21 - 21) =      9.80179  eV     1   --> A              
     e( 22 - 22) =     10.02980  eV     1   --> A              
     e( 23 - 23) =     10.57751  eV     1   --> A              
     e( 24 - 24) =     10.96553  eV     1   --> A              
     e( 25 - 25) =     11.00504  eV     1   --> A              
     e( 26 - 26) =     11.03236  eV     1   --> A              
     e( 27 - 27) =     11.03646  eV     1   --> A              
     e( 28 - 28) =     11.22867  eV     1   --> A              
     e( 29 - 29) =     11.33592  eV     1   --> A              
     e( 30 - 30) =     11.42368  eV     1   --> A              
     e( 31 - 31) =     11.53806  eV     1   --> A              
     e( 32 - 32) =     11.63017  eV     1   --> A              
     e( 33 - 33) =     12.61615  eV     1   --> A              
     e( 34 - 34) =     12.80959  eV     1   --> A              
     e( 35 - 35) =     12.83109  eV     1   --> A              
     e( 36 - 36) =     12.88013  eV     1   --> A              
     e( 37 - 37) =     13.56937  eV     1   --> A              
     e( 38 - 38) =     13.66111  eV     1   --> A              
     e( 39 - 39) =     14.20285  eV     1   --> A              
     e( 40 - 40) =     14.21916  eV     1   --> A              
     e( 41 - 41) =     14.50399  eV     1   --> A              
     e( 42 - 42) =     14.95663  eV     1   --> A              
     e( 43 - 43) =     15.13466  eV     1   --> A              
     e( 44 - 44) =     15.16157  eV     1   --> A              
     e( 45 - 45) =     15.96482  eV     1   --> A              
     e( 46 - 46) =     16.46264  eV     1   --> A              
     e( 47 - 47) =     16.58021  eV     1   --> A              
     e( 48 - 48) =     17.49825  eV     1   --> A              
     e( 49 - 49) =     18.35518  eV     1   --> A              
     e( 50 - 50) =     18.65395  eV     1   --> A              
     e( 51 - 51) =     18.81325  eV     1   --> A              
     e( 52 - 52) =     18.93729  eV     1   --> A              
     e( 53 - 53) =     19.16515  eV     1   --> A              
     e( 54 - 54) =     19.41021  eV     1   --> A              
     e( 55 - 55) =     19.84913  eV     1   --> A              
     e( 56 - 56) =     20.02958  eV     1   --> A              
     e( 57 - 57) =     20.06733  eV     1   --> A              
     e( 58 - 58) =     20.06938  eV     1   --> A              
     e( 59 - 59) =     20.16521  eV     1   --> A              
     e( 60 - 60) =     20.24683  eV     1   --> A              
     e( 61 - 61) =     20.66644  eV     1   --> A              
     e( 62 - 62) =     20.68003  eV     1   --> A              
     e( 63 - 63) =     21.41900  eV     1   --> A              
     e( 64 - 64) =     21.61348  eV     1   --> A              
     e( 65 - 65) =     21.81200  eV     1   --> A              
     e( 66 - 66) =     22.45169  eV     1   --> A              
     e( 67 - 67) =     22.73909  eV     1   --> A              
     e( 68 - 68) =     22.96565  eV     1   --> A              
     e( 69 - 69) =     23.03009  eV     1   --> A              
     e( 70 - 70) =     23.87695  eV     1   --> A              

 **************************************************************************

 **************************************************************************

                    xk=(   0.15401,   0.08868,   0.00000  )

     Band symmetry, C_1 (1)     point group:

     e(  1 -  1) =     -9.72581  eV     1   --> A              
     e(  2 -  2) =     -9.71335  eV     1   --> A              
     e(  3 -  3) =     -9.63181  eV     1   --> A              
     e(  4 -  4) =     -9.61847  eV     1   --> A              
     e(  5 -  5) =     -2.12939  eV     1   --> A              
     e(  6 -  6) =     -2.06605  eV     1   --> A              
     e(  7 -  7) =     -0.19249  eV     1   --> A              
     e(  8 -  8) =      0.00873  eV     1   --> A              
     e(  9 -  9) =      2.16800  eV     1   --> A              
     e( 10 - 10) =      2.24349  eV     1   --> A              
     e( 11 - 11) =      2.30072  eV     1   --> A              
     e( 12 - 12) =      2.32503  eV     1   --> A              
     e( 13 - 13) =      2.84182  eV     1   --> A              
     e( 14 - 14) =      3.09363  eV     1   --> A              
     e( 15 - 15) =      3.35513  eV     1   --> A              
     e( 16 - 16) =      3.36257  eV     1   --> A              
     e( 17 - 17) =      3.40211  eV     1   --> A              
     e( 18 - 18) =      3.40888  eV     1   --> A              
     e( 19 - 19) =      7.82690  eV     1   --> A              
     e( 20 - 20) =      8.55406  eV     1   --> A              
     e( 21 - 21) =      9.60741  eV     1   --> A              
     e( 22 - 22) =      9.79172  eV     1   --> A              
     e( 23 - 23) =     10.43645  eV     1   --> A              
     e( 24 - 24) =     10.92419  eV     1   --> A              
     e( 25 - 25) =     10.94566  eV     1   --> A              
     e( 26 - 26) =     11.04781  eV     1   --> A              
     e( 27 - 27) =     11.14612  eV     1   --> A              
     e( 28 - 28) =     11.15988  eV     1   --> A              
     e( 29 - 29) =     11.24575  eV     1   --> A              
     e( 30 - 30) =     11.50929  eV     1   --> A              
     e( 31 - 31) =     11.53235  eV     1   --> A              
     e( 32 - 32) =     11.66902  eV     1   --> A              
     e( 33 - 33) =     12.62642  eV     1   --> A              
     e( 34 - 34) =     12.65441  eV     1   --> A              
     e( 35 - 35) =     12.74438  eV     1   --> A              
     e( 36 - 36) =     13.14605  eV     1   --> A              
     e( 37 - 37) =     13.69967  eV     1   --> A              
     e( 38 - 38) =     13.82258  eV     1   --> A              
     e( 39 - 39) =     14.15420  eV     1   --> A              
     e( 40 - 40) =     14.26375  eV     1   --> A              
     e( 41 - 41) =     14.51164  eV     1   --> A              
     e( 42 - 42) =     14.78451  eV     1   --> A              
     e( 43 - 43) =     15.00061  eV     1   --> A              
     e( 44 - 44) =     15.16376  eV     1   --> A              
     e( 45 - 45) =     16.00162  eV     1   --> A              
     e( 46 - 46) =     16.44286  eV     1   --> A              
     e( 47 - 47) =     16.59676  eV     1   --> A              
     e( 48 - 48) =     17.69640  eV     1   --> A              
     e( 49 - 49) =     18.48121  eV     1   --> A              
     e( 50 - 50) =     18.68386  eV     1   --> A              
     e( 51 - 51) =     18.71270  eV     1   --> A              
     e( 52 - 52) =     19.14174  eV     1   --> A              
     e( 53 - 53) =     19.34385  eV     1   --> A              
     e( 54 - 54) =     19.41846  eV     1   --> A              
     e( 55 - 55) =     19.91813  eV     1   --> A              
     e( 56 - 56) =     20.07461  eV     1   --> A              
     e( 57 - 57) =     20.20232  eV     1   --> A              
     e( 58 - 58) =     20.24442  eV     1   --> A              
     e( 59 - 59) =     20.46505  eV     1   --> A              
     e( 60 - 60) =     20.56031  eV     1   --> A              
     e( 61 - 61) =     20.67259  eV     1   --> A              
     e( 62 - 62) =     20.79172  eV     1   --> A              
     e( 63 - 63) =     21.51007  eV     1   --> A              
     e( 64 - 64) =     21.84495  eV     1   --> A              
     e( 65 - 65) =     22.24063  eV     1   --> A              
     e( 66 - 66) =     22.46949  eV     1   --> A              
     e( 67 - 67) =     22.52134  eV     1   --> A              
     e( 68 - 68) =     23.09969  eV     1   --> A              
     e( 69 - 69) =     23.27300  eV     1   --> A              
     e( 70 - 70) =     23.86463  eV     1   --> A              

 **************************************************************************

 **************************************************************************

                    xk=(   0.17326,   0.09976,   0.00000  )

     Band symmetry, C_1 (1)     point group:

     e(  1 -  1) =     -9.64682  eV     1   --> A              
     e(  2 -  2) =     -9.63440  eV     1   --> A              
     e(  3 -  3) =     -9.55463  eV     1   --> A              
     e(  4 -  4) =     -9.54136  eV     1   --> A              
     e(  5 -  5) =     -2.03954  eV     1   --> A              
     e(  6 -  6) =     -1.97707  eV     1   --> A              
     e(  7 -  7) =     -0.12075  eV     1   --> A              
     e(  8 -  8) =      0.07546  eV     1   --> A              
     e(  9 -  9) =      1.90686  eV     1   --> A              
     e( 10 - 10) =      1.96136  eV     1   --> A              
     e( 11 - 11) =      2.00237  eV     1   --> A              
     e( 12 - 12) =      2.03079  eV     1   --> A              
     e( 13 - 13) =      2.86346  eV     1   --> A              
     e( 14 - 14) =      3.12353  eV     1   --> A              
     e( 15 - 15) =      3.21801  eV     1   --> A              
     e( 16 - 16) =      3.22978  eV     1   --> A              
     e( 17 - 17) =      3.27031  eV     1   --> A              
     e( 18 - 18) =      3.27743  eV     1   --> A              
     e( 19 - 19) =      7.91216  eV     1   --> A              
     e( 20 - 20) =      8.58330  eV     1   --> A              
     e( 21 - 21) =      9.39803  eV     1   --> A              
     e( 22 - 22) =      9.55086  eV     1   --> A              
     e( 23 - 23) =     10.25560  eV     1   --> A              
     e( 24 - 24) =     10.83143  eV     1   --> A              
     e( 25 - 25) =     10.85351  eV     1   --> A              
     e( 26 - 26) =     10.87223  eV     1   --> A              
     e( 27 - 27) =     11.04319  eV     1   --> A              
     e( 28 - 28) =     11.25958  eV     1   --> A              
     e( 29 - 29) =     11.32499  eV     1   --> A              
     e( 30 - 30) =     11.59989  eV     1   --> A              
     e( 31 - 31) =     11.61767  eV     1   --> A              
     e( 32 - 32) =     11.70740  eV     1   --> A              
     e( 33 - 33) =     12.43376  eV     1   --> A              
     e( 34 - 34) =     12.43895  eV     1   --> A              
     e( 35 - 35) =     12.74571  eV     1   --> A              
     e( 36 - 36) =     13.44030  eV     1   --> A              
     e( 37 - 37) =     13.83375  eV     1   --> A              
     e( 38 - 38) =     13.99044  eV     1   --> A              
     e( 39 - 39) =     14.19353  eV     1   --> A              
     e( 40 - 40) =     14.41607  eV     1   --> A              
     e( 41 - 41) =     14.60967  eV     1   --> A              
     e( 42 - 42) =     14.61213  eV     1   --> A              
     e( 43 - 43) =     14.93023  eV     1   --> A              
     e( 44 - 44) =     15.23155  eV     1   --> A              
     e( 45 - 45) =     16.04075  eV     1   --> A              
     e( 46 - 46) =     16.38947  eV     1   --> A              
     e( 47 - 47) =     16.59358  eV     1   --> A              
     e( 48 - 48) =     17.82204  eV     1   --> A              
     e( 49 - 49) =     18.56479  eV     1   --> A              
     e( 50 - 50) =     18.59138  eV     1   --> A              
     e( 51 - 51) =     18.83897  eV     1   --> A              
     e( 52 - 52) =     19.09822  eV     1   --> A              
     e( 53 - 53) =     19.41232  eV     1   --> A              
     e( 54 - 54) =     19.77941  eV     1   --> A              
     e( 55 - 55) =     19.80137  eV     1   --> A              
     e( 56 - 56) =     20.14196  eV     1   --> A              
     e( 57 - 57) =     20.29507  eV     1   --> A              
     e( 58 - 58) =     20.32155  eV     1   --> A              
     e( 59 - 59) =     20.81154  eV     1   --> A              
     e( 60 - 60) =     20.82920  eV     1   --> A              
     e( 61 - 61) =     20.84474  eV     1   --> A              
     e( 62 - 62) =     21.00138  eV     1   --> A              
     e( 63 - 63) =     21.39337  eV     1   --> A              
     e( 64 - 64) =     22.30509  eV     1   --> A              
     e( 65 - 65) =     22.32240  eV     1   --> A              
     e( 66 - 66) =     22.48185  eV     1   --> A              
     e( 67 - 67) =     22.70645  eV     1   --> A              
     e( 68 - 68) =     23.37199  eV     1   --> A              
     e( 69 - 69) =     23.41341  eV     1   --> A              
     e( 70 - 70) =     23.89959  eV     1   --> A              

 **************************************************************************

 **************************************************************************

                    xk=(   0.19251,   0.11085,   0.00000  )

     Band symmetry, C_1 (1)     point group:

     e(  1 -  1) =     -9.55993  eV     1   --> A              
     e(  2 -  2) =     -9.54757  eV     1   --> A              
     e(  3 -  3) =     -9.46978  eV     1   --> A              
     e(  4 -  4) =     -9.45659  eV     1   --> A              
     e(  5 -  5) =     -1.94160  eV     1   --> A              
     e(  6 -  6) =     -1.88026  eV     1   --> A              
     e(  7 -  7) =     -0.04514  eV     1   --> A              
     e(  8 -  8) =      0.14385  eV     1   --> A              
     e(  9 -  9) =      1.63021  eV     1   --> A              
     e( 10 - 10) =      1.67597  eV     1   --> A              
     e( 11 - 11) =      1.70719  eV     1   --> A              
     e( 12 - 12) =      1.74148  eV     1   --> A              
     e( 13 - 13) =      2.90403  eV     1   --> A              
     e( 14 - 14) =      3.06223  eV     1   --> A              
     e( 15 - 15) =      3.06692  eV     1   --> A              
     e( 16 - 16) =      3.12361  eV     1   --> A              
     e( 17 - 17) =      3.13104  eV     1   --> A              
     e( 18 - 18) =      3.17999  eV     1   --> A              
     e( 19 - 19) =      8.00023  eV     1   --> A              
     e( 20 - 20) =      8.60663  eV     1   --> A              
     e( 21 - 21) =      9.17864  eV     1   --> A              
     e( 22 - 22) =      9.30803  eV     1   --> A              
     e( 23 - 23) =     10.03962  eV     1   --> A              
     e( 24 - 24) =     10.55303  eV     1   --> A              
     e( 25 - 25) =     10.77723  eV     1   --> A              
     e( 26 - 26) =     10.80219  eV     1   --> A              
     e( 27 - 27) =     10.90226  eV     1   --> A              
     e( 28 - 28) =     11.37542  eV     1   --> A              
     e( 29 - 29) =     11.44147  eV     1   --> A              
     e( 30 - 30) =     11.70527  eV     1   --> A              
     e( 31 - 31) =     11.73614  eV     1   --> A              
     e( 32 - 32) =     11.76212  eV     1   --> A              
     e( 33 - 33) =     12.23307  eV     1   --> A              
     e( 34 - 34) =     12.25920  eV     1   --> A              
     e( 35 - 35) =     12.64820  eV     1   --> A              
     e( 36 - 36) =     13.65275  eV     1   --> A              
     e( 37 - 37) =     13.86347  eV     1   --> A              
     e( 38 - 38) =     14.03261  eV     1   --> A              
     e( 39 - 39) =     14.18680  eV     1   --> A              
     e( 40 - 40) =     14.47361  eV     1   --> A              
     e( 41 - 41) =     14.74514  eV     1   --> A              
     e( 42 - 42) =     14.86829  eV     1   --> A              
     e( 43 - 43) =     15.04544  eV     1   --> A              
     e( 44 - 44) =     15.38333  eV     1   --> A              
     e( 45 - 45) =     16.07121  eV     1   --> A              
     e( 46 - 46) =     16.30606  eV     1   --> A              
     e( 47 - 47) =     16.58447  eV     1   --> A              
     e( 48 - 48) =     17.89783  eV     1   --> A              
     e( 49 - 49) =     18.48422  eV     1   --> A              
     e( 50 - 50) =     18.68590  eV     1   --> A              
     e( 51 - 51) =     18.98760  eV     1   --> A              
     e( 52 - 52) =     19.03595  eV     1   --> A              
     e( 53 - 53) =     19.40750  eV     1   --> A              
     e( 54 - 54) =     19.72340  eV     1   --> A              
     e( 55 - 55) =     20.03767  eV     1   --> A              
     e( 56 - 56) =     20.20280  eV     1   --> A              
     e( 57 - 57) =     20.31070  eV     1   --> A              
     e( 58 - 58) =     20.53531  eV     1   --> A              
     e( 59 - 59) =     20.83201  eV     1   --> A              
     e( 60 - 60) =     20.98728  eV     1   --> A              
     e( 61 - 61) =     21.10211  eV     1   --> A              
     e( 62 - 62) =     21.34734  eV     1   --> A              
     e( 63 - 63) =     21.45199  eV     1   --> A              
     e( 64 - 64) =     22.30672  eV     1   --> A              
     e( 65 - 65) =     22.51760  eV     1   --> A              
     e( 66 - 66) =     22.75042  eV     1   --> A              
     e( 67 - 67) =     23.19382  eV     1   --> A              
     e( 68 - 68) =     23.41299  eV     1   --> A              
     e( 69 - 69) =     23.67234  eV     1   --> A              
     e( 70 - 70) =     23.85007  eV     1   --> A              

 **************************************************************************

 **************************************************************************

                    xk=(   0.21177,   0.12193,   0.00000  )

     Band symmetry, C_1 (1)     point group:

     e(  1 -  1) =     -9.46567  eV     1   --> A              
     e(  2 -  2) =     -9.45337  eV     1   --> A              
     e(  3 -  3) =     -9.37779  eV     1   --> A              
     e(  4 -  4) =     -9.36470  eV     1   --> A              
     e(  5 -  5) =     -1.83693  eV     1   --> A              
     e(  6 -  6) =     -1.77712  eV     1   --> A              
     e(  7 -  7) =      0.03049  eV     1   --> A              
     e(  8 -  8) =      0.20816  eV     1   --> A              
     e(  9 -  9) =      1.35291  eV     1   --> A              
     e( 10 - 10) =      1.39510  eV     1   --> A              
     e( 11 - 11) =      1.42215  eV     1   --> A              
     e( 12 - 12) =      1.46600  eV     1   --> A              
     e( 13 - 13) =      2.88445  eV     1   --> A              
     e( 14 - 14) =      2.89849  eV     1   --> A              
     e( 15 - 15) =      2.96275  eV     1   --> A              
     e( 16 - 16) =      2.97024  eV     1   --> A              
     e( 17 - 17) =      2.97175  eV     1   --> A              
     e( 18 - 18) =      3.22126  eV     1   --> A              
     e( 19 - 19) =      8.08851  eV     1   --> A              
     e( 20 - 20) =      8.62205  eV     1   --> A              
     e( 21 - 21) =      8.95189  eV     1   --> A              
     e( 22 - 22) =      9.06310  eV     1   --> A              
     e( 23 - 23) =      9.79970  eV     1   --> A              
     e( 24 - 24) =     10.26054  eV     1   --> A              
     e( 25 - 25) =     10.68061  eV     1   --> A              
     e( 26 - 26) =     10.74166  eV     1   --> A              
     e( 27 - 27) =     10.78165  eV     1   --> A              
     e( 28 - 28) =     11.49433  eV     1   --> A              
     e( 29 - 29) =     11.56663  eV     1   --> A              
     e( 30 - 30) =     11.82919  eV     1   --> A              
     e( 31 - 31) =     11.83674  eV     1   --> A              
     e( 32 - 32) =     11.86015  eV     1   --> A              
     e( 33 - 33) =     12.06174  eV     1   --> A              
     e( 34 - 34) =     12.10153  eV     1   --> A              
     e( 35 - 35) =     12.51240  eV     1   --> A              
     e( 36 - 36) =     13.70160  eV     1   --> A              
     e( 37 - 37) =     13.79502  eV     1   --> A              
     e( 38 - 38) =     13.99263  eV     1   --> A              
     e( 39 - 39) =     14.05819  eV     1   --> A              
     e( 40 - 40) =     14.43368  eV     1   --> A              
     e( 41 - 41) =     15.17219  eV     1   --> A              
     e( 42 - 42) =     15.25113  eV     1   --> A              
     e( 43 - 43) =     15.36272  eV     1   --> A              
     e( 44 - 44) =     15.62974  eV     1   --> A              
     e( 45 - 45) =     16.08087  eV     1   --> A              
     e( 46 - 46) =     16.19937  eV     1   --> A              
     e( 47 - 47) =     16.59158  eV     1   --> A              
     e( 48 - 48) =     17.95344  eV     1   --> A              
     e( 49 - 49) =     18.44272  eV     1   --> A              
     e( 50 - 50) =     18.76316  eV     1   --> A              
     e( 51 - 51) =     18.94753  eV     1   --> A              
     e( 52 - 52) =     19.08364  eV     1   --> A              
     e( 53 - 53) =     19.40792  eV     1   --> A              
     e( 54 - 54) =     19.74195  eV     1   --> A              
     e( 55 - 55) =     19.92475  eV     1   --> A              
     e( 56 - 56) =     20.22994  eV     1   --> A              
     e( 57 - 57) =     20.67932  eV     1   --> A              
     e( 58 - 58) =     20.76665  eV     1   --> A              
     e( 59 - 59) =     20.77474  eV     1   --> A              
     e( 60 - 60) =     20.84581  eV     1   --> A              
     e( 61 - 61) =     21.40167  eV     1   --> A              
     e( 62 - 62) =     21.43773  eV     1   --> A              
     e( 63 - 63) =     21.86952  eV     1   --> A              
     e( 64 - 64) =     22.55323  eV     1   --> A              
     e( 65 - 65) =     22.59495  eV     1   --> A              
     e( 66 - 66) =     23.02675  eV     1   --> A              
     e( 67 - 67) =     23.40449  eV     1   --> A              
     e( 68 - 68) =     23.69070  eV     1   --> A              
     e( 69 - 69) =     23.77830  eV     1   --> A              
     e( 70 - 70) =     23.95895  eV     1   --> A              

 **************************************************************************

 **************************************************************************

                    xk=(   0.23102,   0.13302,   0.00000  )

     Band symmetry, C_1 (1)     point group:

     e(  1 -  1) =     -9.36466  eV     1   --> A              
     e(  2 -  2) =     -9.35244  eV     1   --> A              
     e(  3 -  3) =     -9.27930  eV     1   --> A              
     e(  4 -  4) =     -9.26631  eV     1   --> A              
     e(  5 -  5) =     -1.72758  eV     1   --> A              
     e(  6 -  6) =     -1.66982  eV     1   --> A              
     e(  7 -  7) =      0.09807  eV     1   --> A              
     e(  8 -  8) =      0.25593  eV     1   --> A              
     e(  9 -  9) =      1.08355  eV     1   --> A              
     e( 10 - 10) =      1.12498  eV     1   --> A              
     e( 11 - 11) =      1.15774  eV     1   --> A              
     e( 12 - 12) =      1.21927  eV     1   --> A              
     e( 13 - 13) =      2.70959  eV     1   --> A              
     e( 14 - 14) =      2.71787  eV     1   --> A              
     e( 15 - 15) =      2.78975  eV     1   --> A              
     e( 16 - 16) =      2.79816  eV     1   --> A              
     e( 17 - 17) =      3.02111  eV     1   --> A              
     e( 18 - 18) =      3.26708  eV     1   --> A              
     e( 19 - 19) =      8.17322  eV     1   --> A              
     e( 20 - 20) =      8.62741  eV     1   --> A              
     e( 21 - 21) =      8.71932  eV     1   --> A              
     e( 22 - 22) =      8.81577  eV     1   --> A              
     e( 23 - 23) =      9.54732  eV     1   --> A              
     e( 24 - 24) =      9.96823  eV     1   --> A              
     e( 25 - 25) =     10.54368  eV     1   --> A              
     e( 26 - 26) =     10.69233  eV     1   --> A              
     e( 27 - 27) =     10.71753  eV     1   --> A              
     e( 28 - 28) =     11.60997  eV     1   --> A              
     e( 29 - 29) =     11.69171  eV     1   --> A              
     e( 30 - 30) =     11.90353  eV     1   --> A              
     e( 31 - 31) =     11.95766  eV     1   --> A              
     e( 32 - 32) =     11.96582  eV     1   --> A              
     e( 33 - 33) =     11.97938  eV     1   --> A              
     e( 34 - 34) =     11.98375  eV     1   --> A              
     e( 35 - 35) =     12.38225  eV     1   --> A              
     e( 36 - 36) =     13.58764  eV     1   --> A              
     e( 37 - 37) =     13.67377  eV     1   --> A              
     e( 38 - 38) =     13.87051  eV     1   --> A              
     e( 39 - 39) =     13.90773  eV     1   --> A              
     e( 40 - 40) =     14.49409  eV     1   --> A              
     e( 41 - 41) =     15.61727  eV     1   --> A              
     e( 42 - 42) =     15.68425  eV     1   --> A              
     e( 43 - 43) =     15.77959  eV     1   --> A              
     e( 44 - 44) =     15.95555  eV     1   --> A              
     e( 45 - 45) =     16.08196  eV     1   --> A              
     e( 46 - 46) =     16.08802  eV     1   --> A              
     e( 47 - 47) =     16.63397  eV     1   --> A              
     e( 48 - 48) =     18.00364  eV     1   --> A              
     e( 49 - 49) =     18.43557  eV     1   --> A              
     e( 50 - 50) =     18.82011  eV     1   --> A              
     e( 51 - 51) =     18.83260  eV     1   --> A              
     e( 52 - 52) =     19.10434  eV     1   --> A              
     e( 53 - 53) =     19.41424  eV     1   --> A              
     e( 54 - 54) =     19.82714  eV     1   --> A              
     e( 55 - 55) =     19.86990  eV     1   --> A              
     e( 56 - 56) =     20.19483  eV     1   --> A              
     e( 57 - 57) =     20.59727  eV     1   --> A              
     e( 58 - 58) =     20.67634  eV     1   --> A              
     e( 59 - 59) =     20.98752  eV     1   --> A              
     e( 60 - 60) =     21.11554  eV     1   --> A              
     e( 61 - 61) =     21.52899  eV     1   --> A              
     e( 62 - 62) =     21.70079  eV     1   --> A              
     e( 63 - 63) =     22.16502  eV     1   --> A              
     e( 64 - 64) =     22.74156  eV     1   --> A              
     e( 65 - 65) =     22.96038  eV     1   --> A              
     e( 66 - 66) =     22.97850  eV     1   --> A              
     e( 67 - 67) =     23.52319  eV     1   --> A              
     e( 68 - 68) =     23.79838  eV     1   --> A              
     e( 69 - 69) =     24.18250  eV     1   --> A              
     e( 70 - 70) =     24.18393  eV     1   --> A              

 **************************************************************************

 **************************************************************************

                    xk=(   0.25027,   0.14410,   0.00000  )

     Band symmetry, C_1 (1)     point group:

     e(  1 -  1) =     -9.25765  eV     1   --> A              
     e(  2 -  2) =     -9.24550  eV     1   --> A              
     e(  3 -  3) =     -9.17505  eV     1   --> A              
     e(  4 -  4) =     -9.16217  eV     1   --> A              
     e(  5 -  5) =     -1.61658  eV     1   --> A              
     e(  6 -  6) =     -1.56167  eV     1   --> A              
     e(  7 -  7) =      0.13854  eV     1   --> A              
     e(  8 -  8) =      0.26008  eV     1   --> A              
     e(  9 -  9) =      0.82911  eV     1   --> A              
     e( 10 - 10) =      0.87177  eV     1   --> A              
     e( 11 - 11) =      0.93488  eV     1   --> A              
     e( 12 - 12) =      1.03029  eV     1   --> A              
     e( 13 - 13) =      2.51684  eV     1   --> A              
     e( 14 - 14) =      2.52484  eV     1   --> A              
     e( 15 - 15) =      2.60533  eV     1   --> A              
     e( 16 - 16) =      2.61424  eV     1   --> A              
     e( 17 - 17) =      3.07887  eV     1   --> A              
     e( 18 - 18) =      3.31244  eV     1   --> A              
     e( 19 - 19) =      8.24899  eV     1   --> A              
     e( 20 - 20) =      8.48213  eV     1   --> A              
     e( 21 - 21) =      8.56605  eV     1   --> A              
     e( 22 - 22) =      8.62068  eV     1   --> A              
     e( 23 - 23) =      9.29189  eV     1   --> A              
     e( 24 - 24) =      9.68354  eV     1   --> A              
     e( 25 - 25) =     10.40523  eV     1   --> A              
     e( 26 - 26) =     10.65379  eV     1   --> A              
     e( 27 - 27) =     10.68251  eV     1   --> A              
     e( 28 - 28) =     11.68087  eV     1   --> A              
     e( 29 - 29) =     11.77126  eV     1   --> A              
     e( 30 - 30) =     11.87580  eV     1   --> A              
     e( 31 - 31) =     11.94342  eV     1   --> A              
     e( 32 - 32) =     12.04822  eV     1   --> A              
     e( 33 - 33) =     12.07627  eV     1   --> A              
     e( 34 - 34) =     12.11180  eV     1   --> A              
     e( 35 - 35) =     12.30653  eV     1   --> A              
     e( 36 - 36) =     13.39907  eV     1   --> A              
     e( 37 - 37) =     13.52665  eV     1   --> A              
     e( 38 - 38) =     13.66425  eV     1   --> A              
     e( 39 - 39) =     13.79010  eV     1   --> A              
     e( 40 - 40) =     14.58827  eV     1   --> A              
     e( 41 - 41) =     15.85138  eV     1   --> A              
     e( 42 - 42) =     15.85848  eV     1   --> A              
     e( 43 - 43) =     16.23067  eV     1   --> A              
     e( 44 - 44) =     16.24973  eV     1   --> A              
     e( 45 - 45) =     16.27769  eV     1   --> A              
     e( 46 - 46) =     16.31891  eV     1   --> A              
     e( 47 - 47) =     16.71977  eV     1   --> A              
     e( 48 - 48) =     18.05233  eV     1   --> A              
     e( 49 - 49) =     18.45755  eV     1   --> A              
     e( 50 - 50) =     18.70791  eV     1   --> A              
     e( 51 - 51) =     18.86020  eV     1   --> A              
     e( 52 - 52) =     19.10186  eV     1   --> A              
     e( 53 - 53) =     19.42562  eV     1   --> A              
     e( 54 - 54) =     19.73674  eV     1   --> A              
     e( 55 - 55) =     20.05474  eV     1   --> A              
     e( 56 - 56) =     20.18315  eV     1   --> A              
     e( 57 - 57) =     20.35519  eV     1   --> A              
     e( 58 - 58) =     20.58838  eV     1   --> A              
     e( 59 - 59) =     21.13779  eV     1   --> A              
     e( 60 - 60) =     21.53655  eV     1   --> A              
     e( 61 - 61) =     21.61301  eV     1   --> A              
     e( 62 - 62) =     21.99094  eV     1   --> A              
     e( 63 - 63) =     22.26673  eV     1   --> A              
     e( 64 - 64) =     22.83079  eV     1   --> A              
     e( 65 - 65) =     22.95663  eV     1   --> A              
     e( 66 - 66) =     23.47442  eV     1   --> A              
     e( 67 - 67) =     23.53791  eV     1   --> A              
     e( 68 - 68) =     23.98291  eV     1   --> A              
     e( 69 - 69) =     24.23334  eV     1   --> A              
     e( 70 - 70) =     24.65384  eV     1   --> A              

 **************************************************************************

 **************************************************************************

                    xk=(   0.26952,   0.15519,   0.00000  )

     Band symmetry, C_1 (1)     point group:

     e(  1 -  1) =     -9.14548  eV     1   --> A              
     e(  2 -  2) =     -9.13343  eV     1   --> A              
     e(  3 -  3) =     -9.06588  eV     1   --> A              
     e(  4 -  4) =     -9.05312  eV     1   --> A              
     e(  5 -  5) =     -1.50869  eV     1   --> A              
     e(  6 -  6) =     -1.45774  eV     1   --> A              
     e(  7 -  7) =      0.11272  eV     1   --> A              
     e(  8 -  8) =      0.18313  eV     1   --> A              
     e(  9 -  9) =      0.59699  eV     1   --> A              
     e( 10 - 10) =      0.64272  eV     1   --> A              
     e( 11 - 11) =      0.79433  eV     1   --> A              
     e( 12 - 12) =      0.93805  eV     1   --> A              
     e( 13 - 13) =      2.31341  eV     1   --> A              
     e( 14 - 14) =      2.32159  eV     1   --> A              
     e( 15 - 15) =      2.41139  eV     1   --> A              
     e( 16 - 16) =      2.42085  eV     1   --> A              
     e( 17 - 17) =      3.13615  eV     1   --> A              
     e( 18 - 18) =      3.35496  eV     1   --> A              
     e( 19 - 19) =      8.24154  eV     1   --> A              
     e( 20 - 20) =      8.30883  eV     1   --> A              
     e( 21 - 21) =      8.31446  eV     1   --> A              
     e( 22 - 22) =      8.60038  eV     1   --> A              
     e( 23 - 23) =      9.04068  eV     1   --> A              
     e( 24 - 24) =      9.41123  eV     1   --> A              
     e( 25 - 25) =     10.28919  eV     1   --> A              
     e( 26 - 26) =     10.62422  eV     1   --> A              
     e( 27 - 27) =     10.66202  eV     1   --> A              
     e( 28 - 28) =     11.65855  eV     1   --> A              
     e( 29 - 29) =     11.74918  eV     1   --> A              
     e( 30 - 30) =     11.96141  eV     1   --> A              
     e( 31 - 31) =     12.05075  eV     1   --> A              
     e( 32 - 32) =     12.06817  eV     1   --> A              
     e( 33 - 33) =     12.16596  eV     1   --> A              
     e( 34 - 34) =     12.26668  eV     1   --> A              
     e( 35 - 35) =     12.36476  eV     1   --> A              
     e( 36 - 36) =     13.18953  eV     1   --> A              
     e( 37 - 37) =     13.37242  eV     1   --> A              
     e( 38 - 38) =     13.45798  eV     1   --> A              
     e( 39 - 39) =     13.64790  eV     1   --> A              
     e( 40 - 40) =     14.68564  eV     1   --> A              
     e( 41 - 41) =     15.71186  eV     1   --> A              
     e( 42 - 42) =     15.80135  eV     1   --> A              
     e( 43 - 43) =     16.65839  eV     1   --> A              
     e( 44 - 44) =     16.67225  eV     1   --> A              
     e( 45 - 45) =     16.67660  eV     1   --> A              
     e( 46 - 46) =     16.72692  eV     1   --> A              
     e( 47 - 47) =     16.90364  eV     1   --> A              
     e( 48 - 48) =     18.10014  eV     1   --> A              
     e( 49 - 49) =     18.50528  eV     1   --> A              
     e( 50 - 50) =     18.61809  eV     1   --> A              
     e( 51 - 51) =     18.89393  eV     1   --> A              
     e( 52 - 52) =     19.11842  eV     1   --> A              
     e( 53 - 53) =     19.43910  eV     1   --> A              
     e( 54 - 54) =     19.61293  eV     1   --> A              
     e( 55 - 55) =     20.19088  eV     1   --> A              
     e( 56 - 56) =     20.20291  eV     1   --> A              
     e( 57 - 57) =     20.25475  eV     1   --> A              
     e( 58 - 58) =     20.52257  eV     1   --> A              
     e( 59 - 59) =     21.19462  eV     1   --> A              
     e( 60 - 60) =     21.69455  eV     1   --> A              
     e( 61 - 61) =     21.93015  eV     1   --> A              
     e( 62 - 62) =     22.24493  eV     1   --> A              
     e( 63 - 63) =     22.26866  eV     1   --> A              
     e( 64 - 64) =     22.74985  eV     1   --> A              
     e( 65 - 65) =     23.15771  eV     1   --> A              
     e( 66 - 66) =     23.48371  eV     1   --> A              
     e( 67 - 67) =     23.85795  eV     1   --> A              
     e( 68 - 68) =     24.21270  eV     1   --> A              
     e( 69 - 69) =     24.33472  eV     1   --> A              
     e( 70 - 70) =     24.93152  eV     1   --> A              

 **************************************************************************

 **************************************************************************

                    xk=(   0.28877,   0.16627,   0.00000  )

     Band symmetry, C_1 (1)     point group:

     e(  1 -  1) =     -9.02915  eV     1   --> A              
     e(  2 -  2) =     -9.01719  eV     1   --> A              
     e(  3 -  3) =     -8.95278  eV     1   --> A              
     e(  4 -  4) =     -8.94015  eV     1   --> A              
     e(  5 -  5) =     -1.41121  eV     1   --> A              
     e(  6 -  6) =     -1.36581  eV     1   --> A              
     e(  7 -  7) =     -0.00770  eV     1   --> A              
     e(  8 -  8) =      0.02608  eV     1   --> A              
     e(  9 -  9) =      0.39654  eV     1   --> A              
     e( 10 - 10) =      0.44740  eV     1   --> A              
     e( 11 - 11) =      0.76551  eV     1   --> A              
     e( 12 - 12) =      0.94263  eV     1   --> A              
     e( 13 - 13) =      2.10166  eV     1   --> A              
     e( 14 - 14) =      2.11012  eV     1   --> A              
     e( 15 - 15) =      2.20971  eV     1   --> A              
     e( 16 - 16) =      2.21979  eV     1   --> A              
     e( 17 - 17) =      3.19006  eV     1   --> A              
     e( 18 - 18) =      3.39254  eV     1   --> A              
     e( 19 - 19) =      7.99887  eV     1   --> A              
     e( 20 - 20) =      8.06196  eV     1   --> A              
     e( 21 - 21) =      8.34496  eV     1   --> A              
     e( 22 - 22) =      8.56606  eV     1   --> A              
     e( 23 - 23) =      8.79959  eV     1   --> A              
     e( 24 - 24) =      9.15480  eV     1   --> A              
     e( 25 - 25) =     10.20935  eV     1   --> A              
     e( 26 - 26) =     10.60063  eV     1   --> A              
     e( 27 - 27) =     10.64951  eV     1   --> A              
     e( 28 - 28) =     11.62546  eV     1   --> A              
     e( 29 - 29) =     11.72260  eV     1   --> A              
     e( 30 - 30) =     12.01938  eV     1   --> A              
     e( 31 - 31) =     12.08400  eV     1   --> A              
     e( 32 - 32) =     12.20462  eV     1   --> A              
     e( 33 - 33) =     12.29051  eV     1   --> A              
     e( 34 - 34) =     12.42837  eV     1   --> A              
     e( 35 - 35) =     12.49812  eV     1   --> A              
     e( 36 - 36) =     12.98361  eV     1   --> A              
     e( 37 - 37) =     13.23166  eV     1   --> A              
     e( 38 - 38) =     13.26536  eV     1   --> A              
     e( 39 - 39) =     13.48922  eV     1   --> A              
     e( 40 - 40) =     14.77935  eV     1   --> A              
     e( 41 - 41) =     15.52976  eV     1   --> A              
     e( 42 - 42) =     15.69251  eV     1   --> A              
     e( 43 - 43) =     16.87577  eV     1   --> A              
     e( 44 - 44) =     16.89845  eV     1   --> A              
     e( 45 - 45) =     17.06068  eV     1   --> A              
     e( 46 - 46) =     17.21713  eV     1   --> A              
     e( 47 - 47) =     17.34423  eV     1   --> A              
     e( 48 - 48) =     18.14820  eV     1   --> A              
     e( 49 - 49) =     18.57796  eV     1   --> A              
     e( 50 - 50) =     18.60697  eV     1   --> A              
     e( 51 - 51) =     18.95650  eV     1   --> A              
     e( 52 - 52) =     19.16889  eV     1   --> A              
     e( 53 - 53) =     19.45030  eV     1   --> A              
     e( 54 - 54) =     19.45888  eV     1   --> A              
     e( 55 - 55) =     20.13476  eV     1   --> A              
     e( 56 - 56) =     20.25853  eV     1   --> A              
     e( 57 - 57) =     20.44713  eV     1   --> A              
     e( 58 - 58) =     20.48886  eV     1   --> A              
     e( 59 - 59) =     21.16916  eV     1   --> A              
     e( 60 - 60) =     21.76938  eV     1   --> A              
     e( 61 - 61) =     22.17784  eV     1   --> A              
     e( 62 - 62) =     22.28345  eV     1   --> A              
     e( 63 - 63) =     22.53222  eV     1   --> A              
     e( 64 - 64) =     22.70599  eV     1   --> A              
     e( 65 - 65) =     23.32753  eV     1   --> A              
     e( 66 - 66) =     23.43762  eV     1   --> A              
     e( 67 - 67) =     23.70063  eV     1   --> A              
     e( 68 - 68) =     24.66969  eV     1   --> A              
     e( 69 - 69) =     24.77855  eV     1   --> A              
     e( 70 - 70) =     25.06910  eV     1   --> A              

 **************************************************************************

 **************************************************************************

                    xk=(   0.30802,   0.17736,   0.00000  )

     Band symmetry, C_1 (1)     point group:

     e(  1 -  1) =     -8.90981  eV     1   --> A              
     e(  2 -  2) =     -8.89795  eV     1   --> A              
     e(  3 -  3) =     -8.83689  eV     1   --> A              
     e(  4 -  4) =     -8.82440  eV     1   --> A              
     e(  5 -  5) =     -1.33491  eV     1   --> A              
     e(  6 -  6) =     -1.29685  eV     1   --> A              
     e(  7 -  7) =     -0.18871  eV     1   --> A              
     e(  8 -  8) =     -0.16963  eV     1   --> A              
     e(  9 -  9) =      0.24015  eV     1   --> A              
     e( 10 - 10) =      0.29836  eV     1   --> A              
     e( 11 - 11) =      0.81523  eV     1   --> A              
     e( 12 - 12) =      1.00331  eV     1   --> A              
     e( 13 - 13) =      1.88365  eV     1   --> A              
     e( 14 - 14) =      1.89243  eV     1   --> A              
     e( 15 - 15) =      2.00216  eV     1   --> A              
     e( 16 - 16) =      2.01300  eV     1   --> A              
     e( 17 - 17) =      3.23814  eV     1   --> A              
[...]
     e( 61 - 61) =     20.38013  eV     1   --> A'             
     e( 62 - 62) =     20.66573  eV     1   --> A'             
     e( 63 - 63) =     20.76704  eV     1   --> A''            
     e( 64 - 64) =     21.09408  eV     1   --> A''            
     e( 65 - 65) =     21.24227  eV     1   --> A'             
     e( 66 - 66) =     22.04786  eV     1   --> A'             
     e( 67 - 67) =     22.20276  eV     1   --> A'             
     e( 68 - 68) =     23.31332  eV     1   --> A'             
     e( 69 - 69) =     23.35298  eV     1   --> A'             
     e( 70 - 70) =     23.98324  eV     1   --> A''            

 **************************************************************************

 **************************************************************************

                    xk=(   0.05775,   0.00000,   0.00000  )

     Band symmetry, C_s (m)     point group:

     e(  1 -  1) =     -9.99990  eV     1   --> A'             
     e(  2 -  2) =     -9.98727  eV     1   --> A'             
     e(  3 -  3) =     -9.89991  eV     1   --> A'             
     e(  4 -  4) =     -9.88635  eV     1   --> A'             
     e(  5 -  5) =     -2.44399  eV     1   --> A'             
     e(  6 -  6) =     -2.37845  eV     1   --> A'             
     e(  7 -  7) =     -0.45318  eV     1   --> A'             
     e(  8 -  8) =     -0.24015  eV     1   --> A'             
     e(  9 -  9) =      2.48875  eV     1   --> A'             
     e( 10 - 10) =      2.83777  eV     1   --> A'             
     e( 11 - 11) =      3.65943  eV     1   --> A'             
     e( 12 - 12) =      3.66662  eV     1   --> A'             
     e( 13 - 13) =      3.67436  eV     1   --> A'             
     e( 14 - 14) =      3.68334  eV     1   --> A'             
     e( 15 - 15) =      3.80891  eV     1   --> A''            
     e( 16 - 16) =      3.81440  eV     1   --> A''            
     e( 17 - 17) =      3.83957  eV     1   --> A''            
     e( 18 - 18) =      3.84535  eV     1   --> A''            
     e( 19 - 19) =      7.47503  eV     1   --> A'             
     e( 20 - 20) =      8.36522  eV     1   --> A'             
     e( 21 - 21) =     10.27521  eV     1   --> A'             
     e( 22 - 22) =     10.42018  eV     1   --> A'             
     e( 23 - 23) =     10.42869  eV     1   --> A'             
     e( 24 - 24) =     10.53298  eV     1   --> A'             
     e( 25 - 25) =     10.64506  eV     1   --> A'             
     e( 26 - 26) =     11.00418  eV     1   --> A'             
     e( 27 - 27) =     11.07381  eV     1   --> A'             
     e( 28 - 28) =     11.25253  eV     1   --> A''            
     e( 29 - 29) =     11.25976  eV     1   --> A''            
     e( 30 - 30) =     11.61619  eV     1   --> A'             
     e( 31 - 31) =     11.64687  eV     1   --> A'             
     e( 32 - 32) =     11.81698  eV     1   --> A''            
     e( 33 - 33) =     11.82661  eV     1   --> A''            
     e( 34 - 34) =     11.87906  eV     1   --> A'             
     e( 35 - 35) =     13.74819  eV     1   --> A'             
     e( 36 - 36) =     13.80461  eV     1   --> A'             
     e( 37 - 37) =     13.91615  eV     1   --> A'             
     e( 38 - 38) =     14.05348  eV     1   --> A''            
     e( 39 - 39) =     14.09105  eV     1   --> A''            
     e( 40 - 40) =     14.59959  eV     1   --> A'             
     e( 41 - 41) =     15.28866  eV     1   --> A'             
     e( 42 - 42) =     15.47553  eV     1   --> A'             
     e( 43 - 43) =     15.51852  eV     1   --> A''            
     e( 44 - 44) =     15.61893  eV     1   --> A''            
     e( 45 - 45) =     15.96262  eV     1   --> A'             
     e( 46 - 46) =     16.25525  eV     1   --> A''            
     e( 47 - 47) =     16.30505  eV     1   --> A''            
     e( 48 - 48) =     16.31199  eV     1   --> A'             
     e( 49 - 49) =     17.26330  eV     1   --> A'             
     e( 50 - 50) =     17.57249  eV     1   --> A'             
     e( 51 - 51) =     18.45754  eV     1   --> A'             
     e( 52 - 52) =     18.53716  eV     1   --> A'             
     e( 53 - 53) =     18.55652  eV     1   --> A'             
     e( 54 - 54) =     18.81389  eV     1   --> A'             
     e( 55 - 55) =     19.02301  eV     1   --> A'             
     e( 56 - 56) =     19.54063  eV     1   --> A'             
     e( 57 - 57) =     19.70430  eV     1   --> A'             
     e( 58 - 58) =     19.86144  eV     1   --> A'             
     e( 59 - 59) =     19.93634  eV     1   --> A''            
     e( 60 - 60) =     20.04070  eV     1   --> A''            
     e( 61 - 61) =     20.48730  eV     1   --> A'             
     e( 62 - 62) =     20.75885  eV     1   --> A'             
     e( 63 - 63) =     20.79597  eV     1   --> A''            
     e( 64 - 64) =     21.10982  eV     1   --> A''            
     e( 65 - 65) =     21.11118  eV     1   --> A'             
     e( 66 - 66) =     21.83229  eV     1   --> A'             
     e( 67 - 67) =     22.13748  eV     1   --> A'             
     e( 68 - 68) =     23.05764  eV     1   --> A'             
     e( 69 - 69) =     23.59774  eV     1   --> A'             
     e( 70 - 70) =     24.09606  eV     1   --> A''            

 **************************************************************************

 **************************************************************************

                    xk=(   0.03850,   0.00000,   0.00000  )

     Band symmetry, C_s (m)     point group:

     e(  1 -  1) =    -10.01830  eV     1   --> A'             
     e(  2 -  2) =    -10.00566  eV     1   --> A'             
     e(  3 -  3) =     -9.91792  eV     1   --> A'             
     e(  4 -  4) =     -9.90434  eV     1   --> A'             
     e(  5 -  5) =     -2.46517  eV     1   --> A'             
     e(  6 -  6) =     -2.39951  eV     1   --> A'             
     e(  7 -  7) =     -0.47108  eV     1   --> A'             
     e(  8 -  8) =     -0.25743  eV     1   --> A'             
     e(  9 -  9) =      2.47931  eV     1   --> A'             
     e( 10 - 10) =      2.83111  eV     1   --> A'             
     e( 11 - 11) =      3.77415  eV     1   --> A'             
     e( 12 - 12) =      3.78019  eV     1   --> A'             
     e( 13 - 13) =      3.79674  eV     1   --> A'             
     e( 14 - 14) =      3.80407  eV     1   --> A'             
     e( 15 - 15) =      3.83700  eV     1   --> A''            
     e( 16 - 16) =      3.84244  eV     1   --> A''            
     e( 17 - 17) =      3.86688  eV     1   --> A''            
     e( 18 - 18) =      3.87263  eV     1   --> A''            
     e( 19 - 19) =      7.44502  eV     1   --> A'             
     e( 20 - 20) =      8.34325  eV     1   --> A'             
     e( 21 - 21) =     10.29776  eV     1   --> A'             
     e( 22 - 22) =     10.32430  eV     1   --> A'             
     e( 23 - 23) =     10.34145  eV     1   --> A'             
     e( 24 - 24) =     10.44722  eV     1   --> A'             
     e( 25 - 25) =     10.56138  eV     1   --> A'             
     e( 26 - 26) =     11.11063  eV     1   --> A'             
     e( 27 - 27) =     11.13916  eV     1   --> A'             
     e( 28 - 28) =     11.21392  eV     1   --> A''            
     e( 29 - 29) =     11.22119  eV     1   --> A''            
     e( 30 - 30) =     11.67600  eV     1   --> A'             
     e( 31 - 31) =     11.69290  eV     1   --> A'             
     e( 32 - 32) =     11.75519  eV     1   --> A''            
     e( 33 - 33) =     11.76492  eV     1   --> A''            
     e( 34 - 34) =     11.89270  eV     1   --> A'             
     e( 35 - 35) =     13.78449  eV     1   --> A'             
     e( 36 - 36) =     14.00008  eV     1   --> A'             
     e( 37 - 37) =     14.04694  eV     1   --> A'             
     e( 38 - 38) =     14.11736  eV     1   --> A''            
     e( 39 - 39) =     14.15430  eV     1   --> A''            
     e( 40 - 40) =     14.63304  eV     1   --> A'             
     e( 41 - 41) =     15.49905  eV     1   --> A'             
     e( 42 - 42) =     15.54882  eV     1   --> A'             
     e( 43 - 43) =     15.56005  eV     1   --> A''            
     e( 44 - 44) =     15.65848  eV     1   --> A''            
     e( 45 - 45) =     16.04127  eV     1   --> A'             
     e( 46 - 46) =     16.15156  eV     1   --> A''            
     e( 47 - 47) =     16.18776  eV     1   --> A'             
     e( 48 - 48) =     16.19979  eV     1   --> A''            
     e( 49 - 49) =     17.03711  eV     1   --> A'             
     e( 50 - 50) =     17.40565  eV     1   --> A'             
     e( 51 - 51) =     18.31781  eV     1   --> A'             
     e( 52 - 52) =     18.42495  eV     1   --> A'             
     e( 53 - 53) =     18.48871  eV     1   --> A'             
     e( 54 - 54) =     18.73473  eV     1   --> A'             
     e( 55 - 55) =     18.87190  eV     1   --> A'             
     e( 56 - 56) =     19.43330  eV     1   --> A'             
     e( 57 - 57) =     19.76416  eV     1   --> A'             
     e( 58 - 58) =     19.86159  eV     1   --> A''            
     e( 59 - 59) =     19.89521  eV     1   --> A'             
     e( 60 - 60) =     19.96883  eV     1   --> A''            
     e( 61 - 61) =     20.63857  eV     1   --> A'             
     e( 62 - 62) =     20.82143  eV     1   --> A''            
     e( 63 - 63) =     20.92698  eV     1   --> A'             
     e( 64 - 64) =     21.00331  eV     1   --> A'             
     e( 65 - 65) =     21.12452  eV     1   --> A''            
     e( 66 - 66) =     21.63191  eV     1   --> A'             
     e( 67 - 67) =     22.08433  eV     1   --> A'             
     e( 68 - 68) =     22.78366  eV     1   --> A'             
     e( 69 - 69) =     23.86071  eV     1   --> A'             
     e( 70 - 70) =     24.18778  eV     1   --> A''            

 **************************************************************************

 **************************************************************************

                    xk=(   0.01925,   0.00000,   0.00000  )

     Band symmetry, C_s (m)     point group:

     e(  1 -  1) =    -10.02936  eV     1   --> A'             
     e(  2 -  2) =    -10.01671  eV     1   --> A'             
     e(  3 -  3) =     -9.92876  eV     1   --> A'             
     e(  4 -  4) =     -9.91517  eV     1   --> A'             
     e(  5 -  5) =     -2.47791  eV     1   --> A'             
     e(  6 -  6) =     -2.41218  eV     1   --> A'             
     e(  7 -  7) =     -0.48186  eV     1   --> A'             
     e(  8 -  8) =     -0.26785  eV     1   --> A'             
     e(  9 -  9) =      2.47322  eV     1   --> A'             
     e( 10 - 10) =      2.82648  eV     1   --> A'             
     e( 11 - 11) =      3.84574  eV     1   --> A'             
     e( 12 - 12) =      3.85128  eV     1   --> A'             
     e( 13 - 13) =      3.85415  eV     1   --> A''            
     e( 14 - 14) =      3.85957  eV     1   --> A''            
     e( 15 - 15) =      3.87320  eV     1   --> A'             
     e( 16 - 16) =      3.87933  eV     1   --> A'             
     e( 17 - 17) =      3.88356  eV     1   --> A''            
     e( 18 - 18) =      3.88928  eV     1   --> A''            
     e( 19 - 19) =      7.42610  eV     1   --> A'             
     e( 20 - 20) =      8.32882  eV     1   --> A'             
     e( 21 - 21) =     10.25738  eV     1   --> A'             
     e( 22 - 22) =     10.28030  eV     1   --> A'             
     e( 23 - 23) =     10.31115  eV     1   --> A'             
     e( 24 - 24) =     10.39013  eV     1   --> A'             
     e( 25 - 25) =     10.50555  eV     1   --> A'             
     e( 26 - 26) =     11.18377  eV     1   --> A'             
     e( 27 - 27) =     11.18770  eV     1   --> A'             
     e( 28 - 28) =     11.18952  eV     1   --> A''            
     e( 29 - 29) =     11.19683  eV     1   --> A''            
     e( 30 - 30) =     11.71488  eV     1   --> A'             
     e( 31 - 31) =     11.71763  eV     1   --> A''            
     e( 32 - 32) =     11.72616  eV     1   --> A'             
     e( 33 - 33) =     11.72743  eV     1   --> A''            
     e( 34 - 34) =     11.90308  eV     1   --> A'             
     e( 35 - 35) =     13.76230  eV     1   --> A'             
     e( 36 - 36) =     14.14338  eV     1   --> A'             
     e( 37 - 37) =     14.16195  eV     1   --> A''            
     e( 38 - 38) =     14.18333  eV     1   --> A'             
     e( 39 - 39) =     14.19843  eV     1   --> A''            
     e( 40 - 40) =     14.63917  eV     1   --> A'             
     e( 41 - 41) =     15.58620  eV     1   --> A''            
     e( 42 - 42) =     15.59594  eV     1   --> A'             
     e( 43 - 43) =     15.65145  eV     1   --> A'             
     e( 44 - 44) =     15.68338  eV     1   --> A''            
     e( 45 - 45) =     16.08337  eV     1   --> A''            
     e( 46 - 46) =     16.10006  eV     1   --> A'             
     e( 47 - 47) =     16.10723  eV     1   --> A'             
     e( 48 - 48) =     16.13080  eV     1   --> A''            
     e( 49 - 49) =     16.87625  eV     1   --> A'             
     e( 50 - 50) =     17.27634  eV     1   --> A'             
     e( 51 - 51) =     18.22978  eV     1   --> A'             
     e( 52 - 52) =     18.34531  eV     1   --> A'             
     e( 53 - 53) =     18.45426  eV     1   --> A'             
     e( 54 - 54) =     18.68442  eV     1   --> A'             
     e( 55 - 55) =     18.77155  eV     1   --> A'             
     e( 56 - 56) =     19.35187  eV     1   --> A'             
     e( 57 - 57) =     19.80491  eV     1   --> A'             
     e( 58 - 58) =     19.81536  eV     1   --> A''            
     e( 59 - 59) =     19.91983  eV     1   --> A'             
     e( 60 - 60) =     19.92444  eV     1   --> A''            
     e( 61 - 61) =     20.78960  eV     1   --> A'             
     e( 62 - 62) =     20.83875  eV     1   --> A''            
     e( 63 - 63) =     20.93252  eV     1   --> A'             
     e( 64 - 64) =     21.08784  eV     1   --> A'             
     e( 65 - 65) =     21.13479  eV     1   --> A''            
     e( 66 - 66) =     21.46193  eV     1   --> A'             
     e( 67 - 67) =     22.04979  eV     1   --> A'             
     e( 68 - 68) =     22.57153  eV     1   --> A'             
     e( 69 - 69) =     24.08240  eV     1   --> A'             
     e( 70 - 70) =     24.24832  eV     1   --> A''            

 **************************************************************************

 **************************************************************************

                    xk=(   0.00000,   0.00000,   0.00000  )

     Band symmetry, C_s (m)     point group:

     e(  1 -  1) =    -10.03305  eV     1   --> A'             
     e(  2 -  2) =    -10.02040  eV     1   --> A'             
     e(  3 -  3) =     -9.93237  eV     1   --> A'             
     e(  4 -  4) =     -9.91878  eV     1   --> A'             
     e(  5 -  5) =     -2.48215  eV     1   --> A'             
     e(  6 -  6) =     -2.41641  eV     1   --> A'             
     e(  7 -  7) =     -0.48546  eV     1   --> A'             
     e(  8 -  8) =     -0.27133  eV     1   --> A'             
     e(  9 -  9) =      2.47113  eV     1   --> A'             
     e( 10 - 10) =      2.82485  eV     1   --> A'             
     e( 11 - 11) =      3.85992  eV     1   --> A''            
     e( 12 - 12) =      3.86533  eV     1   --> A''            
     e( 13 - 13) =      3.87009  eV     1   --> A'             
     e( 14 - 14) =      3.87549  eV     1   --> A'             
     e( 15 - 15) =      3.88917  eV     1   --> A''            
     e( 16 - 16) =      3.89489  eV     1   --> A''            
     e( 17 - 17) =      3.89921  eV     1   --> A'             
     e( 18 - 18) =      3.90492  eV     1   --> A'             
     e( 19 - 19) =      7.41962  eV     1   --> A'             
     e( 20 - 20) =      8.32377  eV     1   --> A'             
     e( 21 - 21) =     10.23512  eV     1   --> A'             
     e( 22 - 22) =     10.25874  eV     1   --> A'             
     e( 23 - 23) =     10.31410  eV     1   --> A'             
     e( 24 - 24) =     10.37023  eV     1   --> A'             
     e( 25 - 25) =     10.48611  eV     1   --> A'             
     e( 26 - 26) =     11.18118  eV     1   --> A''            
     e( 27 - 27) =     11.18851  eV     1   --> A''            
     e( 28 - 28) =     11.20376  eV     1   --> A'             
     e( 29 - 29) =     11.21110  eV     1   --> A'             
     e( 30 - 30) =     11.70503  eV     1   --> A''            
     e( 31 - 31) =     11.71484  eV     1   --> A''            
     e( 32 - 32) =     11.72827  eV     1   --> A'             
     e( 33 - 33) =     11.73810  eV     1   --> A'             
     e( 34 - 34) =     11.90691  eV     1   --> A'             
     e( 35 - 35) =     13.75201  eV     1   --> A'             
     e( 36 - 36) =     14.17802  eV     1   --> A''            
     e( 37 - 37) =     14.19855  eV     1   --> A'             
     e( 38 - 38) =     14.21434  eV     1   --> A''            
     e( 39 - 39) =     14.23491  eV     1   --> A'             
     e( 40 - 40) =     14.63610  eV     1   --> A'             
     e( 41 - 41) =     15.59513  eV     1   --> A''            
     e( 42 - 42) =     15.61225  eV     1   --> A'             
     e( 43 - 43) =     15.69188  eV     1   --> A''            
     e( 44 - 44) =     15.70894  eV     1   --> A'             
     e( 45 - 45) =     16.05947  eV     1   --> A''            
     e( 46 - 46) =     16.07753  eV     1   --> A'             
     e( 47 - 47) =     16.10666  eV     1   --> A''            
     e( 48 - 48) =     16.12472  eV     1   --> A'             
     e( 49 - 49) =     16.81604  eV     1   --> A'             
     e( 50 - 50) =     17.22601  eV     1   --> A'             
     e( 51 - 51) =     18.19975  eV     1   --> A'             
     e( 52 - 52) =     18.31863  eV     1   --> A'             
     e( 53 - 53) =     18.44195  eV     1   --> A'             
     e( 54 - 54) =     18.66737  eV     1   --> A'             
     e( 55 - 55) =     18.73639  eV     1   --> A'             
     e( 56 - 56) =     19.32202  eV     1   --> A'             
     e( 57 - 57) =     19.79971  eV     1   --> A''            
     e( 58 - 58) =     19.81938  eV     1   --> A'             
     e( 59 - 59) =     19.90942  eV     1   --> A''            
     e( 60 - 60) =     19.92878  eV     1   --> A'             
     e( 61 - 61) =     20.84488  eV     1   --> A''            
     e( 62 - 62) =     20.86468  eV     1   --> A'             
     e( 63 - 63) =     20.90782  eV     1   --> A'             
     e( 64 - 64) =     21.13847  eV     1   --> A''            
     e( 65 - 65) =     21.15747  eV     1   --> A'             
     e( 66 - 66) =     21.38222  eV     1   --> A'             
     e( 67 - 67) =     22.03782  eV     1   --> A'             
     e( 68 - 68) =     22.48645  eV     1   --> A'             
     e( 69 - 69) =     24.22609  eV     1   --> A'             
     e( 70 - 70) =     24.26957  eV     1   --> A''            

 **************************************************************************
 
     BANDS        :      8.22s CPU     13.19s WALL

 
   This run was terminated on:  12:31:25  17Jun2023            

=------------------------------------------------------------------------------=
   JOB DONE.
=------------------------------------------------------------------------------=
