
     Program PWSCF v.7.0 starts on 17Jun2023 at 12:26:18 

     This program is part of the open-source Quantum ESPRESSO suite
     for quantum simulation of materials; please cite
         "P. Giannozzi et al., J. Phys.:Condens. Matter 21 395502 (2009);
         "P. Giannozzi et al., J. Phys.:Condens. Matter 29 465901 (2017);
         "P. Giannozzi et al., J. Chem. Phys. 152 154105 (2020);
          URL http://www.quantum-espresso.org", 
     in publications or presentations arising from this work. More details at
     http://www.quantum-espresso.org/quote

     Parallel version (MPI), running on    16 processors

     MPI processes distributed on     1 nodes
     R & G space division:  proc/nbgrp/npool/nimage =      16
     6785 MiB available memory on the printing compute node when the environment starts
 
     Waiting for input...
     Reading input from standard input

     Current dimensions of program PWSCF are:
     Max number of different atomic species (ntypx) = 10
     Max number of k-points (npk) =  40000
     Max angular momentum in pseudopotentials (lmaxx) =  4
     Message from routine volume:
     axis vectors are left-handed

     Atomic positions and unit cell read from directory:
     ./work/Al2S2.save/
     Atomic positions from file used, from input discarded
 
     Message from routine volume:
     axis vectors are left-handed
     file Al.pbe-n-kjpaw_psl.1.0.0.UPF: wavefunction(s)  3S 3P renormalized
     file S.pbe-n-kjpaw_psl.1.0.0.UPF: wavefunction(s)  3S 3P renormalized
     Message from routine setup:
     using ibrav=0 with symmetry is DISCOURAGED, use correct ibrav instead

     Subspace diagonalization in iterative solution of the eigenvalue problem:
     a serial algorithm will be used

 
     Parallelization info
     --------------------
     sticks:   dense  smooth     PW     G-vecs:    dense   smooth      PW
     Min          39      39     11                 4603     4603     731
     Max          40      40     12                 4609     4609     750
     Sum         625     625    187                73689    73689   11939
 
     Using Slab Decomposition
 


     bravais-lattice index     =            0
     lattice parameter (alat)  =       6.1344  a.u.
     unit-cell volume          =    1175.3558 (a.u.)^3
     number of atoms/cell      =            8
     number of atomic types    =            2
     number of electrons       =        36.00
     number of Kohn-Sham states=           70
     kinetic-energy cutoff     =      60.0000  Ry
     charge density cutoff     =     240.0000  Ry
     Exchange-correlation= SLA  PW   PBX  PBC
                           (   1   4   3   4   0   0   0)

     celldm(1)=   6.134387  celldm(2)=   0.000000  celldm(3)=   0.000000
     celldm(4)=   0.000000  celldm(5)=   0.000000  celldm(6)=   0.000000

     crystal axes: (cart. coord. in units of alat)
               a(1) = (   0.865734   0.500504   0.000000 )  
               a(2) = (   0.865734  -0.500504   0.000000 )  
               a(3) = (   0.000000   0.000000   5.875350 )  

     reciprocal axes: (cart. coord. in units 2 pi/alat)
               b(1) = (  0.577544  0.998993  0.000000 )  
               b(2) = (  0.577544 -0.998993  0.000000 )  
               b(3) = (  0.000000  0.000000  0.170203 )  


     PseudoPot. # 1 for Al read from file:
     /home/mainadmin/research/danu/pseudo/Al.pbe-n-kjpaw_psl.1.0.0.UPF
     MD5 check sum: 502b6b27b9c6270cab5dd1084b96fa6d
     Pseudo is Projector augmented-wave + core cor, Zval =  3.0
     Generated using &quot;atomic&quot; code by A. Dal Corso  v.6.3
     Shape of augmentation charge: PSQ
     Using radial grid of 1135 points,  6 beta functions with: 
                l(1) =   0
                l(2) =   0
                l(3) =   1
                l(4) =   1
                l(5) =   2
                l(6) =   2
     Q(r) pseudized with 0 coefficients 


     PseudoPot. # 2 for S  read from file:
     /home/mainadmin/research/danu/pseudo/S.pbe-n-kjpaw_psl.1.0.0.UPF
     MD5 check sum: fb45dfebcf3e72a4e1bd4a866ec2e262
     Pseudo is Projector augmented-wave + core cor, Zval =  6.0
     Generated using &quot;atomic&quot; code by A. Dal Corso  v.6.3
     Shape of augmentation charge: PSQ
     Using radial grid of 1151 points,  6 beta functions with: 
                l(1) =   0
                l(2) =   0
                l(3) =   1
                l(4) =   1
                l(5) =   2
                l(6) =   2
     Q(r) pseudized with 0 coefficients 


     atomic species   valence    mass     pseudopotential
        Al             3.00    26.98100     Al( 1.00)
        S              6.00    32.06500     S ( 1.00)

      2 Sym. Ops. (no inversion) found



   Cartesian axes

     site n.     atom                  positions (alat units)
         1           S   tau(   1) = (   1.1543123   0.0000000   0.0000000  )
         2           Al  tau(   2) = (   0.5771561   0.0000000   0.3774354  )
         3           Al  tau(   3) = (   0.5771561   0.0000000   1.1798169  )
         4           S   tau(   4) = (   1.1543123   0.0000000   1.5570966  )
         5           S   tau(   5) = (   1.1543123   0.0000000   2.9370339  )
         6           Al  tau(   6) = (   0.5771561   0.0000000   3.3141800  )
         7           Al  tau(   7) = (   0.5771561   0.0000000   4.1177659  )
         8           S   tau(   8) = (   1.1543123   0.0000000   4.4954130  )

     number of k points=    91
                       cart. coord. in units 2pi/alat
        k(    1) = (   0.0000000   0.0000000   0.0000000), wk =   0.0219780
        k(    2) = (   0.0192515   0.0110848   0.0000000), wk =   0.0219780
        k(    3) = (   0.0385030   0.0221697   0.0000000), wk =   0.0219780
        k(    4) = (   0.0577544   0.0332545   0.0000000), wk =   0.0219780
        k(    5) = (   0.0770059   0.0443393   0.0000000), wk =   0.0219780
        k(    6) = (   0.0962574   0.0554241   0.0000000), wk =   0.0219780
        k(    7) = (   0.1155089   0.0665090   0.0000000), wk =   0.0219780
        k(    8) = (   0.1347604   0.0775938   0.0000000), wk =   0.0219780
        k(    9) = (   0.1540119   0.0886786   0.0000000), wk =   0.0219780
        k(   10) = (   0.1732633   0.0997634   0.0000000), wk =   0.0219780
        k(   11) = (   0.1925148   0.1108483   0.0000000), wk =   0.0219780
        k(   12) = (   0.2117663   0.1219331   0.0000000), wk =   0.0219780
        k(   13) = (   0.2310178   0.1330179   0.0000000), wk =   0.0219780
        k(   14) = (   0.2502693   0.1441027   0.0000000), wk =   0.0219780
        k(   15) = (   0.2695208   0.1551876   0.0000000), wk =   0.0219780
        k(   16) = (   0.2887722   0.1662724   0.0000000), wk =   0.0219780
        k(   17) = (   0.3080237   0.1773572   0.0000000), wk =   0.0219780
        k(   18) = (   0.3272752   0.1884420   0.0000000), wk =   0.0219780
        k(   19) = (   0.3465267   0.1995269   0.0000000), wk =   0.0219780
        k(   20) = (   0.3657782   0.2106117   0.0000000), wk =   0.0219780
        k(   21) = (   0.3850296   0.2216965   0.0000000), wk =   0.0219780
        k(   22) = (   0.4042811   0.2327813   0.0000000), wk =   0.0219780
        k(   23) = (   0.4235326   0.2438662   0.0000000), wk =   0.0219780
        k(   24) = (   0.4427841   0.2549510   0.0000000), wk =   0.0219780
        k(   25) = (   0.4620356   0.2660358   0.0000000), wk =   0.0219780
        k(   26) = (   0.4812871   0.2771206   0.0000000), wk =   0.0219780
        k(   27) = (   0.5005385   0.2882055   0.0000000), wk =   0.0219780
        k(   28) = (   0.5197900   0.2992903   0.0000000), wk =   0.0219780
        k(   29) = (   0.5390415   0.3103751   0.0000000), wk =   0.0219780
        k(   30) = (   0.5582930   0.3214599   0.0000000), wk =   0.0219780
        k(   31) = (   0.5775445   0.3325448   0.0000000), wk =   0.0219780
        k(   32) = (   0.5775445   0.3214599   0.0000000), wk =   0.0219780
        k(   33) = (   0.5775445   0.3103751   0.0000000), wk =   0.0219780
        k(   34) = (   0.5775445   0.2992903   0.0000000), wk =   0.0219780
        k(   35) = (   0.5775445   0.2882055   0.0000000), wk =   0.0219780
        k(   36) = (   0.5775445   0.2771206   0.0000000), wk =   0.0219780
        k(   37) = (   0.5775445   0.2660358   0.0000000), wk =   0.0219780
        k(   38) = (   0.5775445   0.2549510   0.0000000), wk =   0.0219780
        k(   39) = (   0.5775445   0.2438662   0.0000000), wk =   0.0219780
        k(   40) = (   0.5775445   0.2327813   0.0000000), wk =   0.0219780
        k(   41) = (   0.5775445   0.2216965   0.0000000), wk =   0.0219780
        k(   42) = (   0.5775445   0.2106117   0.0000000), wk =   0.0219780
        k(   43) = (   0.5775445   0.1995269   0.0000000), wk =   0.0219780
        k(   44) = (   0.5775445   0.1884420   0.0000000), wk =   0.0219780
        k(   45) = (   0.5775445   0.1773572   0.0000000), wk =   0.0219780
        k(   46) = (   0.5775445   0.1662724   0.0000000), wk =   0.0219780
        k(   47) = (   0.5775445   0.1551876   0.0000000), wk =   0.0219780
        k(   48) = (   0.5775445   0.1441027   0.0000000), wk =   0.0219780
        k(   49) = (   0.5775445   0.1330179   0.0000000), wk =   0.0219780
        k(   50) = (   0.5775445   0.1219331   0.0000000), wk =   0.0219780
        k(   51) = (   0.5775445   0.1108483   0.0000000), wk =   0.0219780
        k(   52) = (   0.5775445   0.0997634   0.0000000), wk =   0.0219780
        k(   53) = (   0.5775445   0.0886786   0.0000000), wk =   0.0219780
        k(   54) = (   0.5775445   0.0775938   0.0000000), wk =   0.0219780
        k(   55) = (   0.5775445   0.0665090   0.0000000), wk =   0.0219780
        k(   56) = (   0.5775445   0.0554241   0.0000000), wk =   0.0219780
        k(   57) = (   0.5775445   0.0443393   0.0000000), wk =   0.0219780
        k(   58) = (   0.5775445   0.0332545   0.0000000), wk =   0.0219780
        k(   59) = (   0.5775445   0.0221697   0.0000000), wk =   0.0219780
        k(   60) = (   0.5775445   0.0110848   0.0000000), wk =   0.0219780
        k(   61) = (   0.5775445   0.0000000   0.0000000), wk =   0.0219780
        k(   62) = (   0.5582930   0.0000000   0.0000000), wk =   0.0219780
        k(   63) = (   0.5390415   0.0000000   0.0000000), wk =   0.0219780
        k(   64) = (   0.5197900   0.0000000   0.0000000), wk =   0.0219780
        k(   65) = (   0.5005385   0.0000000   0.0000000), wk =   0.0219780
        k(   66) = (   0.4812871   0.0000000   0.0000000), wk =   0.0219780
        k(   67) = (   0.4620356   0.0000000   0.0000000), wk =   0.0219780
        k(   68) = (   0.4427841   0.0000000   0.0000000), wk =   0.0219780
        k(   69) = (   0.4235326   0.0000000   0.0000000), wk =   0.0219780
        k(   70) = (   0.4042811   0.0000000   0.0000000), wk =   0.0219780
        k(   71) = (   0.3850296   0.0000000   0.0000000), wk =   0.0219780
        k(   72) = (   0.3657782   0.0000000   0.0000000), wk =   0.0219780
        k(   73) = (   0.3465267   0.0000000   0.0000000), wk =   0.0219780
        k(   74) = (   0.3272752   0.0000000   0.0000000), wk =   0.0219780
        k(   75) = (   0.3080237   0.0000000   0.0000000), wk =   0.0219780
        k(   76) = (   0.2887722   0.0000000   0.0000000), wk =   0.0219780
        k(   77) = (   0.2695208   0.0000000   0.0000000), wk =   0.0219780
        k(   78) = (   0.2502693   0.0000000   0.0000000), wk =   0.0219780
        k(   79) = (   0.2310178   0.0000000   0.0000000), wk =   0.0219780
        k(   80) = (   0.2117663   0.0000000   0.0000000), wk =   0.0219780
        k(   81) = (   0.1925148   0.0000000   0.0000000), wk =   0.0219780
        k(   82) = (   0.1732633   0.0000000   0.0000000), wk =   0.0219780
        k(   83) = (   0.1540119   0.0000000   0.0000000), wk =   0.0219780
        k(   84) = (   0.1347604   0.0000000   0.0000000), wk =   0.0219780
        k(   85) = (   0.1155089   0.0000000   0.0000000), wk =   0.0219780
        k(   86) = (   0.0962574   0.0000000   0.0000000), wk =   0.0219780
        k(   87) = (   0.0770059   0.0000000   0.0000000), wk =   0.0219780
        k(   88) = (   0.0577544   0.0000000   0.0000000), wk =   0.0219780
        k(   89) = (   0.0385030   0.0000000   0.0000000), wk =   0.0219780
        k(   90) = (   0.0192515   0.0000000   0.0000000), wk =   0.0219780
        k(   91) = (   0.0000000   0.0000000   0.0000000), wk =   0.0219780

     Dense  grid:    73689 G-vectors     FFT dimensions: (  32,  32, 180)

     Estimated max dynamical RAM per process >      19.34 MB

     Estimated total dynamical RAM >     309.39 MB

     The potential is recalculated from file :
     ./work/Al2S2.save/charge-density

     Starting wfcs are   32 randomized atomic wfcs +   38 random wfcs
     Checking if some PAW data can be deallocated... 

     Band Structure Calculation
     Davidson diagonalization with overlap
     c_bands:  1 eigenvalues not converged
     c_bands:  1 eigenvalues not converged

     ethr =  2.78E-11,  avg # of iterations = 69.3

     total cpu time spent up to now is      289.1 secs

     End of band structure calculation

          k = 0.0000 0.0000 0.0000 (  9215 PWs)   bands (ev):

   -10.0330 -10.0204  -9.9324  -9.9188  -2.4822  -2.4164  -0.4855  -0.2713
     2.4711   2.8248   3.8599   3.8653   3.8701   3.8755   3.8892   3.8949
     3.8992   3.9049   7.4196   8.3238  10.2351  10.2587  10.3141  10.3702
    10.4861  11.1812  11.1885  11.2038  11.2111  11.7050  11.7148  11.7283
    11.7381  11.9069  13.7520  14.1780  14.1986  14.2143  14.2349  14.6361
    15.5951  15.6122  15.6919  15.7089  16.0595  16.0775  16.1067  16.1247
    16.8160  17.2260  18.1998  18.3186  18.4420  18.6674  18.7364  19.3220
    19.7997  19.8194  19.9094  19.9288  20.8449  20.8647  20.9078  21.1385
    21.1575  21.3822  22.0378  22.4864  24.2261  24.2696

          k = 0.0193 0.0111 0.0000 (  9229 PWs)   bands (ev):

   -10.0281 -10.0155  -9.9276  -9.9140  -2.4765  -2.4108  -0.4807  -0.2667
     2.4739   2.8270   3.8342   3.8398   3.8558   3.8612   3.8613   3.8675
     3.8851   3.8908   7.4282   8.3305  10.2649  10.2875  10.3100  10.3968
    10.5120  11.1670  11.1722  11.2017  11.2081  11.7008  11.7122  11.7314
    11.7417  11.9018  13.7652  14.1196  14.1598  14.1632  14.2004  14.6394
    15.5795  15.5944  15.6281  15.6858  16.0896  16.0922  16.1156  16.1427
    16.8948  17.2921  18.2396  18.3541  18.4582  18.6900  18.7829  19.3613
    19.7938  19.8273  19.9093  19.9371  20.7635  20.8427  20.9404  21.0616
    21.1393  21.4838  22.0536  22.5974  24.0488  24.2455

          k = 0.0385 0.0222 0.0000 (  9223 PWs)   bands (ev):

   -10.0134 -10.0008  -9.9131  -9.8996  -2.4596  -2.3939  -0.4663  -0.2528
     2.4819   2.8330   3.7406   3.7469   3.7611   3.7689   3.8320   3.8375
     3.8621   3.8678   7.4532   8.3494  10.2953  10.3495  10.3683  10.4720
    10.5857  11.0703  11.1095  11.2339  11.2403  11.6528  11.6690  11.7745
    11.7912  11.8919  13.7868  13.9467  13.9937  14.0924  14.1394  14.6312
    15.4359  15.5240  15.5536  15.6507  16.0313  16.1656  16.2165  16.2364
    17.1021  17.4555  18.3556  18.4595  18.5029  18.7566  18.9130  19.4644
    19.7471  19.8789  19.8824  19.9945  20.5853  20.8200  20.8674  21.0329
    21.1262  21.6901  22.0987  22.8631  23.7851  24.1517

          k = 0.0578 0.0333 0.0000 (  9239 PWs)   bands (ev):

    -9.9890  -9.9763  -9.8892  -9.8756  -2.4314  -2.3659  -0.4426  -0.2299
     2.4938   2.8409   3.5922   3.6001   3.6033   3.6128   3.7933   3.7988
     3.8245   3.8303   7.4923   8.3774  10.2642  10.4734  10.4840  10.5835
    10.6951  10.9236  11.0163  11.2927  11.2964  11.5760  11.5994  11.7992
    11.8832  11.9305  13.6777  13.7291  13.8859  13.9711  14.0653  14.6068
    15.1824  15.4373  15.4918  15.5922  15.9752  16.2534  16.3070  16.4327
    17.3921  17.6580  18.5373  18.5634  18.6319  18.8612  19.1006  19.5832
    19.6861  19.8349  19.9633  20.0912  20.4201  20.6901  20.7914  21.1123
    21.1734  21.9293  22.1669  23.1952  23.4865  23.9865

          k = 0.0770 0.0443 0.0000 (  9239 PWs)   bands (ev):

    -9.9548  -9.9422  -9.8558  -9.8423  -2.3921  -2.3269  -0.4095  -0.1981
     2.5068   2.8450   3.3929   3.4047   3.4083   3.4213   3.7387   3.7444
     3.7716   3.7776   7.5430   8.4112  10.2060  10.5873  10.6147  10.7129
    10.7714  10.8210  10.9133  11.3646  11.3780  11.4817  11.5163  11.7575
    12.0199  12.0689  13.4305  13.5056  13.8096  13.8169  14.0533  14.5781
    14.9074  15.3364  15.4066  15.5092  15.9396  16.3374  16.3968  16.6814
    17.7326  17.8611  18.6187  18.7653  18.8619  18.9815  19.3063  19.6358
    19.6463  19.7934  20.0535  20.2203  20.3105  20.6294  20.7815  21.1188
    21.3449  22.1879  22.2491  23.1882  23.5494  23.7569

          k = 0.0963 0.0554 0.0000 (  9251 PWs)   bands (ev):

    -9.9113  -9.8987  -9.8132  -9.7997  -2.3420  -2.2770  -0.3675  -0.1577
     2.5128   2.8254   3.1507   3.1661   3.1964   3.2314   3.6679   3.6737
     3.7031   3.7092   7.6032   8.4477  10.1099  10.4784  10.7306  10.8080
    10.8364  10.8399  10.9381  11.3817  11.4237  11.4369  11.4765  11.6880
    12.2011  12.2736  13.1897  13.2966  13.6458  13.7010  14.0992  14.5504
    14.6369  15.2305  15.3045  15.4024  15.9281  16.4053  16.4766  16.9591
    18.0471  18.1044  18.6471  18.9955  19.0494  19.1221  19.4952  19.6394
    19.6768  19.7838  20.1380  20.2500  20.3723  20.6724  20.8522  21.2075
    21.5164  22.3336  22.4629  22.9331  23.4806  23.9044

          k = 0.1155 0.0665 0.0000 (  9253 PWs)   bands (ev):

    -9.8584  -9.8458  -9.7614  -9.7480  -2.2812  -2.2167  -0.3169  -0.1092
     2.4882   2.7226   2.8820   2.9001   2.9969   3.1047   3.5804   3.5865
     3.6188   3.6250   7.6713   8.4848   9.9728  10.2621  10.6847  10.9157
    10.9270  10.9351  11.0107  11.2918  11.3938  11.4256  11.5676  11.6065
    12.4127  12.5324  12.9878  13.0954  13.5453  13.6239  14.1527  14.3958
    14.5241  15.1090  15.2119  15.2750  15.9382  16.4490  16.5395  17.2414
    18.2114  18.4965  18.6477  18.9871  19.1380  19.3323  19.6686  19.7807
    19.8078  19.8826  20.1767  20.2042  20.5322  20.6903  21.0701  21.4491
    21.6269  22.4060  22.7486  22.7855  23.1839  23.9821

          k = 0.1348 0.0776 0.0000 (  9249 PWs)   bands (ev):

    -9.7965  -9.7839  -9.7009  -9.6875  -2.2102  -2.1462  -0.2583  -0.0534
     2.3791   2.5088   2.5961   2.6171   2.8707   3.0766   3.4761   3.4826
     3.5184   3.5249   7.7462   8.5207   9.8018  10.0298  10.5775  10.9655
    11.0050  11.0324  11.0365  11.2287  11.3359  11.4237  11.5381  11.6302
    12.6161  12.8096  12.8311  12.8801  13.5694  13.6611  14.2028  14.2192
    14.5040  14.9566  15.1347  15.1616  15.9648  16.4626  16.5802  17.4982
    18.3552  18.6540  18.8132  18.9373  19.1651  19.4102  19.8491  20.0296
    20.0673  20.0694  20.1652  20.2468  20.6664  20.6800  21.4190  21.6135
    21.8120  22.4517  22.7391  22.9656  23.0301  23.8769

          k = 0.1540 0.0887 0.0000 (  9255 PWs)   bands (ev):

    -9.7258  -9.7133  -9.6318  -9.6185  -2.1294  -2.0660  -0.1925   0.0087
     2.1680   2.2435   2.3007   2.3250   2.8418   3.0936   3.3551   3.3626
     3.4021   3.4089   7.8269   8.5541   9.6074   9.7917  10.4365  10.9242
    10.9457  11.0478  11.1461  11.1599  11.2458  11.5093  11.5324  11.6690
    12.6264  12.6544  12.7444  13.1460  13.6997  13.8226  14.1542  14.2637
    14.5116  14.7845  15.0006  15.1638  16.0016  16.4429  16.5968  17.6964
    18.4812  18.6839  18.7127  19.1417  19.3439  19.4185  19.9181  20.0746
    20.2023  20.2444  20.4651  20.5603  20.6726  20.7917  21.5101  21.8450
    22.2406  22.4695  22.5213  23.0997  23.2730  23.8646

          k = 0.1733 0.0998 0.0000 (  9259 PWs)   bands (ev):

    -9.6468  -9.6344  -9.5546  -9.5414  -2.0395  -1.9771  -0.1207   0.0755
     1.9069   1.9614   2.0024   2.0308   2.8635   3.1235   3.2180   3.2298
     3.2703   3.2774   7.9122   8.5833   9.3980   9.5509  10.2556  10.8314
    10.8535  10.8722  11.0432  11.2596  11.3250  11.5999  11.6177  11.7074
    12.4338  12.4390  12.7457  13.4403  13.8337  13.9904  14.1935  14.4161
    14.6097  14.6121  14.9302  15.2315  16.0408  16.3895  16.5936  17.8220
    18.5648  18.5914  18.8390  19.0982  19.4123  19.7794  19.8014  20.1420
    20.2951  20.3215  20.8115  20.8292  20.8447  21.0014  21.3934  22.3051
    22.3224  22.4819  22.7065  23.3720  23.4134  23.8996

          k = 0.1925 0.1108 0.0000 (  9265 PWs)   bands (ev):

    -9.5599  -9.5476  -9.4698  -9.4566  -1.9416  -1.8803  -0.0451   0.1439
     1.6302   1.6760   1.7072   1.7415   2.9040   3.0622   3.0669   3.1236
     3.1310   3.1800   8.0002   8.6066   9.1786   9.3080  10.0396  10.5530
    10.7772  10.8022  10.9023  11.3754  11.4415  11.7053  11.7361  11.7621
    12.2331  12.2592  12.6482  13.6528  13.8635  14.0326  14.1868  14.4736
    14.7451  14.8683  15.0454  15.3833  16.0712  16.3061  16.5845  17.8978
    18.4842  18.6859  18.9876  19.0359  19.4075  19.7234  20.0377  20.2028
    20.3107  20.5353  20.8320  20.9873  21.1021  21.3473  21.4520  22.3067
    22.5176  22.7504  23.1938  23.4130  23.6723  23.8501

          k = 0.2118 0.1219 0.0000 (  9275 PWs)   bands (ev):

    -9.4657  -9.4534  -9.3778  -9.3647  -1.8369  -1.7771   0.0305   0.2082
     1.3529   1.3951   1.4222   1.4660   2.8844   2.8985   2.9628   2.9702
     2.9718   3.2213   8.0885   8.6221   8.9519   9.0631   9.7997  10.2605
    10.6806  10.7417  10.7816  11.4943  11.5666  11.8292  11.8367  11.8601
    12.0617  12.1015  12.5124  13.7016  13.7950  13.9926  14.0582  14.4337
    15.1722  15.2511  15.3627  15.6297  16.0809  16.1994  16.5916  17.9534
    18.4427  18.7632  18.9475  19.0836  19.4079  19.7420  19.9247  20.2299
    20.6793  20.7666  20.7747  20.8458  21.4017  21.4377  21.8695  22.5532
    22.5949  23.0268  23.4045  23.6907  23.7783  23.9589

          k = 0.2310 0.1330 0.0000 (  9267 PWs)   bands (ev):

    -9.3647  -9.3524  -9.2793  -9.2663  -1.7276  -1.6698   0.0981   0.2559
     1.0836   1.1250   1.1577   1.2193   2.7096   2.7179   2.7898   2.7982
     3.0211   3.2671   8.1732   8.6274   8.7193   8.8158   9.5473   9.9682
    10.5437  10.6923  10.7175  11.6100  11.6917  11.9035  11.9577  11.9658
    11.9794  11.9837  12.3822  13.5876  13.6738  13.8705  13.9077  14.4941
    15.6173  15.6842  15.7796  15.9555  16.0820  16.0880  16.6340  18.0036
    18.4356  18.8201  18.8326  19.1043  19.4142  19.8271  19.8699  20.1948
    20.5973  20.6763  20.9875  21.1155  21.5290  21.7008  22.1650  22.7416
    22.9604  22.9785  23.5232  23.7984  24.1825  24.1839

          k = 0.2503 0.1441 0.0000 (  9255 PWs)   bands (ev):

    -9.2576  -9.2455  -9.1750  -9.1622  -1.6166  -1.5617   0.1385   0.2601
     0.8291   0.8718   0.9349   1.0303   2.5168   2.5248   2.6053   2.6142
     3.0789   3.3124   8.2490   8.4821   8.5661   8.6207   9.2919   9.6835
    10.4052  10.6538  10.6825  11.6809  11.7713  11.8758  11.9434  12.0482
    12.0763  12.1118  12.3065  13.3991  13.5267  13.6642  13.7901  14.5883
    15.8514  15.8585  16.2307  16.2497  16.2777  16.3189  16.7198  18.0523
    18.4575  18.7079  18.8602  19.1019  19.4256  19.7367  20.0547  20.1832
    20.3552  20.5884  21.1378  21.5366  21.6130  21.9909  22.2667  22.8308
    22.9566  23.4744  23.5379  23.9829  24.2333  24.6538

          k = 0.2695 0.1552 0.0000 (  9251 PWs)   bands (ev):

    -9.1455  -9.1334  -9.0659  -9.0531  -1.5087  -1.4577   0.1127   0.1831
     0.5970   0.6427   0.7943   0.9381   2.3134   2.3216   2.4114   2.4209
     3.1362   3.3550   8.2415   8.3088   8.3145   8.6004   9.0407   9.4112
    10.2892  10.6242  10.6620  11.6585  11.7492  11.9614  12.0507  12.0682
    12.1660  12.2667  12.3648  13.1895  13.3724  13.4580  13.6479  14.6856
    15.7119  15.8014  16.6584  16.6723  16.6766  16.7269  16.9036  18.1001
    18.5053  18.6181  18.8939  19.1184  19.4391  19.6129  20.1909  20.2029
    20.2547  20.5226  21.1946  21.6945  21.9301  22.2449  22.2687  22.7499
    23.1577  23.4837  23.8579  24.2127  24.3347  24.9315

          k = 0.2888 0.1663 0.0000 (  9261 PWs)   bands (ev):

    -9.0292  -9.0172  -8.9528  -8.9402  -1.4112  -1.3658  -0.0077   0.0261
     0.3965   0.4474   0.7655   0.9426   2.1017   2.1101   2.2097   2.2198
     3.1901   3.3925   7.9989   8.0620   8.3450   8.5661   8.7996   9.1548
    10.2094  10.6006  10.6495  11.6255  11.7226  12.0194  12.0840  12.2046
    12.2905  12.4284  12.4981  12.9836  13.2317  13.2654  13.4892  14.7793
    15.5298  15.6925  16.8758  16.8984  17.0607  17.2171  17.3442  18.1482
    18.5780  18.6070  18.9565  19.1689  19.4503  19.4589  20.1348  20.2585
    20.4471  20.4889  21.1692  21.7694  22.1778  22.2835  22.5322  22.7060
    23.3275  23.4376  23.7006  24.6697  24.7786  25.0691

          k = 0.3080 0.1774 0.0000 (  9241 PWs)   bands (ev):

    -8.9098  -8.8980  -8.8369  -8.8244  -1.3349  -1.2968  -0.1887  -0.1696
     0.2402   0.2984   0.8152   1.0033   1.8837   1.8924   2.0022   2.0130
     3.2381   3.4232   7.7555   7.8099   8.3514   8.5187   8.5736   8.9171
    10.1748  10.5785  10.6385  11.6134  11.7220  11.9858  12.1842  12.3718
    12.4235  12.5867  12.6432  12.8053  13.1042  13.1334  13.3229  14.8660
    15.3318  15.5594  16.9856  17.0226  17.3273  17.6801  17.8503  18.1994
    18.6196  18.6781  19.0872  19.2539  19.4145  19.4769  20.1500  20.3527
    20.4885  20.6031  21.1334  21.8292  22.1064  22.5809  22.6396  22.7807
    23.4321  23.4518  23.4779  25.1356  25.2282  25.2371

          k = 0.3273 0.1884 0.0000 (  9229 PWs)   bands (ev):

    -8.7887  -8.7770  -8.7195  -8.7072  -1.2928  -1.2634  -0.3872  -0.3731
     0.1422   0.2093   0.9008   1.0895   1.6614   1.6705   1.7907   1.8026
     3.2781   3.4450   7.5126   7.5597   8.3271   8.3672   8.4609   8.7006
    10.1871  10.5517  10.6226  11.6222  11.7499  11.9751  12.2190  12.5435
    12.5755  12.5951  12.7516  12.8129  13.0226  13.1106  13.1603  14.9409
    15.1252  15.4090  16.9498  17.1719  17.4378  18.0670  18.2699  18.3307
    18.4932  18.8163  19.2065  19.3649  19.6270  19.6540  20.1994  20.4891
    20.5165  20.6833  21.1894  21.8631  22.0514  22.5272  22.8030  23.0123
    23.1576  23.5214  23.6085  25.0876  25.3122  25.5456

          k = 0.3465 0.1995 0.0000 (  9227 PWs)   bands (ev):

    -8.6675  -8.6558  -8.6020  -8.5898  -1.2943  -1.2728  -0.5820  -0.5695
     0.1130   0.1889   1.0009   1.1850   1.4367   1.4461   1.5777   1.5922
     3.3079   3.4564   7.2715   7.3129   8.1838   8.2775   8.3965   8.5073
    10.2350  10.5119  10.5999  11.6420  11.8043  11.9858  12.1878  12.4850
    12.6983  12.7474  12.7491  12.9851  13.0284  13.1034  13.1698  14.9174
    14.9969  15.2452  16.8588  17.3270  17.4220  18.2353  18.2660  18.4631
    18.7149  19.0347  19.1849  19.4800  19.9973  20.0876  20.2633  20.5684
    20.6730  20.7380  21.3493  21.8592  22.0221  22.3921  22.8904  22.9268
    23.2204  23.5932  23.7075  24.8907  25.0557  25.5554

          k = 0.3658 0.2106 0.0000 (  9213 PWs)   bands (ev):

    -8.5476  -8.5361  -8.4861  -8.4741  -1.3364  -1.3207  -0.7633  -0.7512
     0.1505   0.2331   1.1023   1.2115   1.2212   1.2636   1.3682   1.4023
     3.3260   3.4565   7.0336   7.0709   8.0259   8.2124   8.3305   8.3383
    10.2807  10.4510  10.5923  11.6504  11.8809  12.0166  12.1439  12.4140
    12.7161  12.7306  12.9344  13.0398  13.1721  13.2680  13.2824  14.7188
    15.0260  15.0716  16.7611  17.3342  17.4858  18.0153  18.2726  18.6595
    18.9572  19.0899  19.3508  19.5706  20.3266  20.3977  20.5952  20.7000
    20.8677  20.9087  21.5383  21.8114  22.0208  22.2756  22.6321  22.9268
    23.3966  23.6002  23.7546  24.6482  24.8198  25.4086

          k = 0.3850 0.2217 0.0000 (  9216 PWs)   bands (ev):

    -8.4309  -8.4195  -8.3735  -8.3616  -1.4049  -1.3924  -0.9257  -0.9137
     0.2404   0.3275   0.9875   0.9976   1.1149   1.1394   1.2492   1.4160
     3.3318   3.4450   6.8006   6.8353   7.8947   8.1424   8.1939   8.2681
    10.2542  10.3629  10.6574  11.6178  11.9713  12.0686  12.1469  12.3945
    12.6408  12.7184  13.1223  13.2027  13.3618  13.4151  13.4537  14.5467
    14.8922  15.0226  16.6808  17.2136  17.6439  17.7731  18.2692  18.7588
    18.9580  19.1490  19.6357  19.6490  20.3803  20.5121  21.0743  21.0799
    21.1337  21.1848  21.6449  21.7381  22.0471  22.2711  22.3965  22.7962
    23.5097  23.5384  23.7309  24.4289  24.7239  25.2452

          k = 0.4043 0.2328 0.0000 (  9220 PWs)   bands (ev):

    -8.3194  -8.3081  -8.2660  -8.2543  -1.4825  -1.4715  -1.0658  -1.0535
     0.3648   0.4548   0.7667   0.7776   0.9218   0.9342   1.3351   1.5097
     3.3256   3.4225   6.5743   6.6078   7.7896   8.0735   8.0771   8.2144
    10.1474  10.2464  10.7978  11.5427  12.0571  12.1440  12.2146  12.4242
    12.5660  12.7595  13.2891  13.3988  13.5450  13.5491  13.6469  14.4312
    14.7119  14.9886  16.6203  17.0833  17.5591  17.7942  18.2223  18.7791
    18.8023  19.3356  19.6907  19.8719  20.4038  20.4696  21.2451  21.3119
    21.4439  21.6195  21.6727  21.6970  22.1074  22.3382  22.4464  22.6005
    23.4211  23.6481  23.6543  24.2704  24.7620  25.2274

          k = 0.4235 0.2439 0.0000 (  9208 PWs)   bands (ev):

    -8.2149  -8.2038  -8.1654  -8.1539  -1.5555  -1.5451  -1.1807  -1.1682
     0.4975   0.5441   0.5625   0.6197   0.7156   0.7275   1.4320   1.6029
     3.3090   3.3910   6.3569   6.3903   7.7085   7.9753   8.0241   8.1743
     9.9966  10.1049  10.9773  11.4515  12.1021  12.2435  12.3267  12.4953
    12.5669  12.8328  13.3750  13.5991  13.6905  13.7211  13.8419  14.4121
    14.5378  14.9369  16.5628  16.9574  17.3944  17.9249  18.1299  18.6306
    18.7538  19.5198  19.7168  20.0140  20.3261  20.3616  21.1541  21.2173
    21.5372  21.5489  21.7329  22.0920  22.3237  22.5093  22.6339  22.7173
    23.5177  23.5584  23.7632  24.1818  24.8671  25.3202

          k = 0.4428 0.2550 0.0000 (  9194 PWs)   bands (ev):

    -8.1195  -8.1086  -8.0738  -8.0624  -1.6146  -1.6044  -1.2684  -1.2558
     0.3335   0.3444   0.5126   0.5247   0.6694   0.7658   1.5226   1.6893
     3.2850   3.3534   6.1509   6.1848   7.6481   7.8966   7.9893   8.1520
     9.8223   9.9447  11.1773  11.3662  12.0905  12.3638  12.4597  12.5977
    12.6644  12.9305  13.3479  13.7840  13.8650  13.8739  14.0340  14.3860
    14.4973  14.8905  16.4841  16.8456  17.2973  18.0023  18.0164  18.4488
    18.7037  19.6468  19.6829  20.0813  20.0906  20.1934  20.9693  21.0607
    21.3271  21.4390  21.9374  22.2341  22.6208  22.7374  22.8194  23.2787
    23.5214  23.8581  23.8787  24.1537  24.9952  25.4827

          k = 0.4620 0.2660 0.0000 (  9182 PWs)   bands (ev):

    -8.0350  -8.0241  -7.9926  -7.9814  -1.6540  -1.6437  -1.3277  -1.3148
     0.1306   0.1414   0.3157   0.3281   0.8223   0.9223   1.6036   1.7663
     3.2576   3.3138   5.9589   5.9940   7.6041   7.8342   7.9773   8.1508
     9.6355   9.7723  11.2990  11.3878  12.0562  12.4978  12.5843  12.7209
    12.8258  13.0474  13.2780  13.8979  13.9648  14.0708  14.2169  14.3109
    14.6498  14.8761  16.3788  16.7546  17.2642  17.8562  18.0372  18.2609
    18.6359  19.4080  19.7547  19.7683  19.8755  20.1669  20.8989  20.9401
    21.1632  21.2849  22.1341  22.3661  22.7990  22.8296  23.2378  23.6212
    23.8754  23.9874  24.1733  24.3208  25.1263  25.6858

          k = 0.4813 0.2771 0.0000 (  9178 PWs)   bands (ev):

    -7.9628  -7.9520  -7.9233  -7.9122  -1.6704  -1.6600  -1.3579  -1.3449
    -0.0635  -0.0525   0.1272   0.1399   0.9668   1.0706   1.6730   1.8321
     3.2317   3.2770   5.7844   5.8207   7.5720   7.7848   7.9911   8.1734
     9.4432   9.5932  11.2564  11.5998  12.0274  12.6346  12.6461  12.8547
    13.0205  13.1827  13.2621  13.8637  14.0074  14.2644  14.3809  14.3892
    14.8312  14.9057  16.2700  16.6889  17.2640  17.7081  17.9507  18.0698
    18.5531  19.0276  19.3835  19.4737  19.7542  20.3120  20.8415  20.9642
    21.0569  21.1864  22.3037  22.5140  22.9563  22.9606  23.4055  23.9664
    24.0496  24.2157  24.4829  24.7839  25.2704  25.8045

          k = 0.5005 0.2882 0.0000 (  9194 PWs)   bands (ev):

    -7.9039  -7.8933  -7.8669  -7.8560  -1.6630  -1.6527  -1.3599  -1.3468
    -0.2453  -0.2341  -0.0504  -0.0374   1.0941   1.2020   1.7296   1.8857
     3.2119   3.2476   5.6312   5.6687   7.5476   7.7455   8.0328   8.2212
     9.2505   9.4123  11.2412  11.8031  12.0143  12.6025  12.7605  12.9887
    13.2275  13.3397  13.3640  13.7658  14.0110  14.4366  14.5172  14.5339
    14.9578  15.0155  16.1916  16.6498  17.2546  17.5725  17.7451  17.8786
    18.4519  18.5999  19.0108  19.0686  19.7299  20.4921  20.7495  20.9918
    21.1090  21.1444  22.4376  22.6729  23.0943  23.1253  23.4828  24.0383
    24.2932  24.3451  25.0475  25.0562  25.5453  25.9329

          k = 0.5198 0.2993 0.0000 (  9198 PWs)   bands (ev):

    -7.8591  -7.8485  -7.8239  -7.8131  -1.6343  -1.6240  -1.3367  -1.3237
    -0.4102  -0.3987  -0.2127  -0.1994   1.1969   1.3086   1.7727   1.9265
     3.2014   3.2293   5.5040   5.5425   7.5282   7.7144   8.1029   8.2945
     9.0610   9.2335  11.2522  11.9839  12.0183  12.4968  12.8623  13.1134
    13.3934  13.5228  13.5520  13.7232  14.0069  14.5653  14.6052  14.6602
    14.9912  15.1821  16.1747  16.6336  17.1933  17.4617  17.4630  17.6945
    18.1501  18.3835  18.6789  18.7266  19.7385  20.6688  20.6778  20.9419
    21.1407  21.2904  22.5300  22.8343  23.2101  23.3257  23.5392  23.9576
    24.3827  24.6392  25.0325  25.5736  25.9291  26.0719

          k = 0.5390 0.3104 0.0000 (  9210 PWs)   bands (ev):

    -7.8281  -7.8176  -7.7943  -7.7834  -1.5911  -1.5808  -1.2955  -1.2826
    -0.5503  -0.5385  -0.3524  -0.3388   1.2701   1.3849   1.8024   1.9546
     3.2004   3.2227   5.4079   5.4472   7.5121   7.6904   8.1999   8.3913
     8.8786   9.0612  11.2829  12.0347  12.1250  12.3825  12.9331  13.2223
    13.4076  13.7309  13.7824  13.8675  14.0155  14.6172  14.6214  14.7153
    14.9823  15.3117  16.2301  16.6315  17.0545  17.1791  17.3925  17.5355
    17.7989  18.2924  18.4230  18.4965  19.7659  20.6374  20.8201  20.8948
    21.1614  21.4791  22.5770  22.9870  23.3138  23.5422  23.5702  23.8253
    24.4736  24.8272  24.8530  25.9699  26.1934  26.2082

          k = 0.5583 0.3215 0.0000 (  9216 PWs)   bands (ev):

    -7.8105  -7.8000  -7.7773  -7.7665  -1.5478  -1.5377  -1.2512  -1.2386
    -0.6509  -0.6389  -0.4550  -0.4411   1.3120   1.4287   1.8194   1.9706
     3.2051   3.2241   5.3481   5.3877   7.5003   7.6742   8.3164   8.5025
     8.7115   8.9053  11.3189  12.0542  12.2112  12.2932  12.9726  13.3083
    13.3613  13.9518  14.0320  14.0364  14.1198  14.5455  14.5575  14.6461
    14.9448  15.3901  16.3297  16.6334  16.8747  16.9795  17.3697  17.4290
    17.5609  18.2246  18.2650  18.3821  19.7898  20.6288  20.8516  20.9329
    21.1850  21.6411  22.5813  23.1123  23.4128  23.5704  23.6680  23.7429
    24.5480  24.6116  24.9241  26.1805  26.2845  26.3074

          k = 0.5775 0.3325 0.0000 (  9224 PWs)   bands (ev):

    -7.8050  -7.7945  -7.7720  -7.7613  -1.5277  -1.5176  -1.2297  -1.2171
    -0.6900  -0.6779  -0.4957  -0.4816   1.3249   1.4422   1.8247   1.9756
     3.2083   3.2263   5.3280   5.3676   7.4952   7.6680   8.3981   8.5746
     8.6132   8.8186  11.3368  12.0638  12.2384  12.2576  12.9848  13.3398
    13.3490  14.0465  14.1045  14.2412  14.3975  14.4145  14.4317  14.4438
    14.9204  15.4148  16.3908  16.6346  16.7768  16.9112  17.3778  17.3919
    17.4708  18.1967  18.2120  18.3498  19.7982  20.6341  20.8298  20.9880
    21.1877  21.7168  22.5700  23.1705  23.5103  23.5360  23.5586  23.8403
    24.4829  24.5809  24.9529  26.2320  26.3018  26.3333

          k = 0.5775 0.3215 0.0000 (  9206 PWs)   bands (ev):

    -7.8061  -7.7956  -7.7732  -7.7624  -1.5339  -1.5238  -1.2365  -1.2239
    -0.6791  -0.6670  -0.4841  -0.4701   1.3222   1.4393   1.8235   1.9745
     3.2071   3.2254   5.3328   5.3725   7.4969   7.6699   8.3703   8.5513
     8.6450   8.8454  11.3310  12.0606  12.2324  12.2675  12.9820  13.3325
    13.3455  14.0356  14.0430  14.1352  14.2329  14.4986  14.5044  14.5822
    14.9303  15.4094  16.3758  16.6339  16.8037  16.9275  17.3741  17.4022
    17.4927  18.2052  18.2252  18.3580  19.7966  20.6306  20.8369  20.9623
    21.1943  21.6896  22.5769  23.1500  23.4677  23.5655  23.5923  23.8167
    24.5193  24.5690  24.9462  26.2252  26.2883  26.3346

          k = 0.5775 0.3104 0.0000 (  9222 PWs)   bands (ev):

    -7.8097  -7.7992  -7.7766  -7.7658  -1.5517  -1.5415  -1.2558  -1.2431
    -0.6477  -0.6357  -0.4510  -0.4371   1.3142   1.4310   1.8201   1.9713
     3.2030   3.2219   5.3469   5.3866   7.5023   7.6758   8.3101   8.4974
     8.7168   8.9094  11.3140  12.0507  12.2158  12.2961  12.9740  13.2865
    13.3605  13.8955  13.9656  14.0327  14.0471  14.6078  14.6348  14.7365
    14.9618  15.3938  16.3514  16.6313  16.8613  16.9659  17.3721  17.4285
    17.5368  18.2327  18.2611  18.3782  19.7913  20.6176  20.8602  20.8953
    21.2102  21.6188  22.5929  23.0961  23.4405  23.5825  23.6593  23.7731
    24.5370  24.6000  24.9266  26.2095  26.2606  26.3189

          k = 0.5775 0.2993 0.0000 (  9214 PWs)   bands (ev):

    -7.8156  -7.8051  -7.7822  -7.7714  -1.5799  -1.5696  -1.2858  -1.2730
    -0.5974  -0.5856  -0.3985  -0.3847   1.3018   1.4182   1.8145   1.9660
     3.1955   3.2152   5.3692   5.4093   7.5123   7.6866   8.2404   8.4327
     8.8051   8.9902  11.2864  12.0339  12.1906  12.3412  12.9612  13.2086
    13.3766  13.7224  13.7736  13.8559  14.0160  14.7358  14.7713  14.8941
    15.0171  15.3700  16.3328  16.6260  16.9333  17.0197  17.3713  17.4700
    17.5946  18.2805  18.3171  18.4106  19.7833  20.5967  20.7928  20.8968
    21.2306  21.5110  22.6104  23.0141  23.4331  23.6048  23.7322  23.7357
    24.4843  24.7033  24.8945  26.1915  26.2212  26.2977

          k = 0.5775 0.2882 0.0000 (  9214 PWs)   bands (ev):

    -7.8234  -7.8129  -7.7897  -7.7789  -1.6161  -1.6057  -1.3239  -1.3109
    -0.5308  -0.5191  -0.3294  -0.3159   1.2859   1.4016   1.8071   1.9589
     3.1844   3.2051   5.3984   5.4393   7.5279   7.7029   8.1688   8.3648
     8.9018   9.0796  11.2499  12.0103  12.1582  12.3973  12.9434  13.1004
    13.3583  13.5320  13.5716  13.7000  13.9935  14.8713  14.9064  15.0548
    15.0956  15.3414  16.3254  16.6178  17.0111  17.0828  17.3693  17.5257
    17.6617  18.3482  18.3902  18.4554  19.7735  20.5707  20.6633  20.9422
    21.2506  21.3769  22.6184  22.9104  23.4440  23.6273  23.7134  23.8162
    24.4127  24.8162  24.8499  26.1698  26.1744  26.2737

          k = 0.5775 0.2771 0.0000 (  9214 PWs)   bands (ev):

    -7.8329  -7.8224  -7.7990  -7.7881  -1.6581  -1.6476  -1.3674  -1.3543
    -0.4507  -0.4392  -0.2467  -0.2334   1.2673   1.3822   1.7980   1.9503
     3.1696   3.1916   5.4330   5.4751   7.5500   7.7256   8.0977   8.2967
     9.0038   9.1738  11.2067  11.9802  12.1200  12.4548  12.9188  12.9671
    13.2334  13.3342  13.3723  13.6555  13.9658  15.0096  15.0313  15.1950
    15.2182  15.3163  16.3284  16.6079  17.0916  17.1494  17.3652  17.5943
    17.7340  18.4338  18.4776  18.5132  19.7630  20.5151  20.5421  20.9922
    21.2281  21.2674  22.6081  22.7905  23.4700  23.6467  23.7177  23.9045
    24.3263  24.7930  24.9318  26.1055  26.1580  26.1956

          k = 0.5775 0.2660 0.0000 (  9208 PWs)   bands (ev):

    -7.8440  -7.8335  -7.8096  -7.7988  -1.7038  -1.6932  -1.4142  -1.4009
    -0.3595  -0.3481  -0.1530  -0.1399   1.2466   1.3607   1.7875   1.9404
     3.1515   3.1748   5.4710   5.5151   7.5799   7.7557   8.0279   8.2295
     9.1089   9.2705  11.1587  11.9441  12.0764  12.4924  12.8156  12.8788
    13.0281  13.1431  13.1986  13.6988  13.9336  15.1160  15.1481  15.3121
    15.3239  15.3838  16.3381  16.5981  17.1746  17.2145  17.3601  17.6737
    17.8070  18.5342  18.5763  18.5839  19.7523  20.3566  20.5123  21.0430
    21.0754  21.2794  22.5747  22.6589  23.5075  23.6611  23.7462  23.9962
    24.2305  24.7236  25.0458  25.9747  26.0262  26.1395

          k = 0.5775 0.2550 0.0000 (  9192 PWs)   bands (ev):

    -7.8564  -7.8458  -7.8216  -7.8107  -1.7516  -1.7409  -1.4627  -1.4493
    -0.2594  -0.2481  -0.0502  -0.0373   1.2248   1.3380   1.7759   1.9293
     3.1305   3.1551   5.5107   5.5573   7.6186   7.7939   7.9601   8.1639
     9.2155   9.3678  11.1073  11.9020  12.0271  12.4676  12.6539  12.7879
    12.7989  12.9981  13.0940  13.7764  13.8977  15.1209  15.2837  15.4035
    15.4438  15.5513  16.3497  16.5913  17.2615  17.2731  17.3561  17.7619
    17.8751  18.6463  18.6670  18.6841  19.7411  20.1969  20.4822  20.9285
    21.0913  21.2861  22.5184  22.5198  23.5526  23.6698  23.7941  24.0858
    24.1315  24.6415  25.1552  25.7529  25.9280  26.1092

          k = 0.5775 0.2439 0.0000 (  9202 PWs)   bands (ev):

    -7.8699  -7.8593  -7.8346  -7.8237  -1.8003  -1.7895  -1.5117  -1.4983
    -0.1523  -0.1409   0.0601   0.0728   1.2025   1.3147   1.7633   1.9173
     3.1070   3.1329   5.5501   5.6001   7.6669   7.8411   7.8944   8.1002
     9.3215   9.4637  11.0538  11.8532  11.9706  12.3479  12.4905  12.5628
    12.6224  12.9299  13.0922  13.8590  13.8711  15.0806  15.4133  15.5194
    15.5865  15.7201  16.3588  16.5911  17.3201  17.3540  17.3563  17.8564
    17.9323  18.7608  18.7681  18.7985  19.7252  20.0485  20.4528  20.7967
    21.1336  21.2872  22.3769  22.4420  23.6014  23.6727  23.8541  24.0355
    24.1635  24.5468  25.2573  25.5481  25.8069  25.9816

          k = 0.5775 0.2328 0.0000 (  9198 PWs)   bands (ev):

    -7.8842  -7.8736  -7.8484  -7.8375  -1.8491  -1.8382  -1.5606  -1.5470
    -0.0397  -0.0281   0.1768   0.1893   1.1807   1.2918   1.7500   1.9046
     3.0815   3.1086   5.5875   5.6418   7.7256   7.8311   7.8980   8.0385
     9.4244   9.5555  10.9986  11.7942  11.9030  12.1629  12.3324  12.3366
    12.4282  12.8941  13.1643  13.8184  13.9771  15.0250  15.5327  15.6401
    15.7374  15.8893  16.3623  16.6020  17.3512  17.3618  17.4558  17.9548
    17.9720  18.8650  18.8961  18.9176  19.6898  19.9343  20.4245  20.6886
    21.1670  21.2829  22.2342  22.3486  23.6500  23.6700  23.9185  23.9481
    24.2120  24.4395  25.3469  25.3796  25.6644  25.7735

          k = 0.5775 0.2217 0.0000 (  9202 PWs)   bands (ev):

    -7.8991  -7.8885  -7.8629  -7.8519  -1.8973  -1.8864  -1.6086  -1.5950
     0.0766   0.0886   0.2987   0.3110   1.1603   1.2701   1.7363   1.8914
     3.0546   3.0829   5.6216   5.6810   7.7702   7.7951   7.9648   7.9790
     9.5209   9.6401  10.9418  11.7151  11.8188  11.9509  12.1220  12.2025
    12.2342  12.8676  13.2732  13.7768  14.0916  14.9618  15.6369  15.7557
    15.8921  16.0576  16.3602  16.6294  17.3624  17.3773  17.5667  17.9881
    18.0546  18.9763  19.0301  19.0397  19.6137  19.8824  20.3981  20.6111
    21.1886  21.2736  22.0959  22.2416  23.6620  23.6944  23.8740  23.9805
    24.2056  24.3203  25.2733  25.3885  25.5375  25.5598

          k = 0.5775 0.2106 0.0000 (  9194 PWs)   bands (ev):

    -7.9145  -7.9039  -7.8778  -7.8668  -1.9444  -1.9334  -1.6554  -1.6417
     0.1948   0.2076   0.4249   0.4370   1.1427   1.2507   1.7223   1.8780
     3.0267   3.0561   5.6513   5.7163   7.7117   7.8754   7.9219   8.0417
     9.6066   9.7132  10.8829  11.5957  11.7157  11.7316  11.9529  12.0510
    12.0991  12.8451  13.4011  13.7349  14.2121  14.8933  15.7212  15.8614
    16.0406  16.2228  16.3597  16.6781  17.3523  17.4047  17.6876  17.9770
    18.1530  19.0924  19.1631  19.1694  19.5133  19.8824  20.3742  20.5685
    21.1968  21.2597  21.9661  22.1240  23.6492  23.7302  23.8163  24.0342
    24.1256  24.1899  25.2476  25.2625  25.3465  25.5498

          k = 0.5775 0.1995 0.0000 (  9204 PWs)   bands (ev):

    -7.9302  -7.9195  -7.8929  -7.8820  -1.9901  -1.9791  -1.7007  -1.6869
     0.3124   0.3268   0.5544   0.5664   1.1298   1.2352   1.7084   1.8645
     2.9982   3.0287   5.6759   5.7471   7.6559   7.8670   7.9663   8.1285
     9.6753   9.7694  10.8202  11.4242  11.5136  11.6045  11.8395  11.8864
    12.0247  12.8254  13.5404  13.6932  14.3369  14.8202  15.7827  15.9540
    16.1485  16.3802  16.3939  16.7506  17.3234  17.4453  17.8183  17.9391
    18.2469  19.2104  19.2866  19.3135  19.4161  19.9099  20.3534  20.5608
    21.1911  21.2419  21.8493  21.9990  23.6312  23.7532  23.7757  23.9806
    24.0502  24.0748  25.0730  25.1369  25.2933  25.5959

          k = 0.5775 0.1884 0.0000 (  9204 PWs)   bands (ev):

    -7.9460  -7.9353  -7.9082  -7.8972  -2.0342  -2.0230  -1.7441  -1.7303
     0.4260   0.4434   0.6864   0.6984   1.1244   1.2259   1.6947   1.8512
     2.9697   3.0011   5.6950   5.7727   7.6026   7.8146   8.0669   8.2244
     9.7196   9.8023  10.7498  11.2209  11.3070  11.5002  11.7474  11.7637
    11.9717  12.8084  13.6522  13.6872  14.4638  14.7429  15.8221  16.0313
    16.1688  16.5088  16.5208  16.8460  17.2866  17.4972  17.8810  17.9578
    18.3334  19.3272  19.3326  19.4091  19.4622  19.9549  20.3366  20.5831
    21.1730  21.2211  21.7501  21.8705  23.6063  23.7498  23.7569  23.7977
    23.9045  24.0988  24.8718  24.9347  25.3824  25.6226

          k = 0.5775 0.1774 0.0000 (  9190 PWs)   bands (ev):

    -7.9616  -7.9509  -7.9234  -7.9124  -2.0763  -2.0651  -1.7857  -1.7718
     0.5303   0.5534   0.8199   0.8321   1.1313   1.2262   1.6817   1.8384
     2.9414   2.9737   5.7085   5.7929   7.5519   7.7645   8.1761   8.3284
     9.7317   9.8054  10.6642  11.0078  11.1218  11.4182  11.6415  11.7047
    11.9346  12.7943  13.6123  13.8391  14.5903  14.6611  15.8430  16.0926
    16.1344  16.6235  16.6721  16.9597  17.2659  17.5460  17.8234  18.1050
    18.4092  19.2645  19.4388  19.5301  19.6152  20.0127  20.3243  20.6256
    21.1463  21.1981  21.6729  21.7447  23.5659  23.5877  23.7316  23.7471
    23.7633  24.1039  24.6674  24.7461  25.4803  25.6278

          k = 0.5775 0.1663 0.0000 (  9198 PWs)   bands (ev):

    -7.9771  -7.9663  -7.9384  -7.9273  -2.1163  -2.1051  -1.8251  -1.8111
     0.6184   0.6509   0.9537   0.9663   1.1568   1.2414   1.6700   1.8264
     2.9136   2.9468   5.7166   5.8077   7.5038   7.7168   8.2924   8.4389
     9.7063   9.7743  10.5528  10.7961  10.9713  11.3671  11.5729  11.6538
    11.9113  12.7836  13.5740  13.9941  14.5748  14.7131  15.8503  16.0772
    16.1387  16.6602  16.8516  17.0852  17.2969  17.5453  17.8186  18.2586
    18.4720  19.2106  19.5410  19.6498  19.7721  20.0794  20.3168  20.6732
    21.1166  21.1744  21.6212  21.6315  23.3737  23.4795  23.6586  23.7077
    23.7111  24.0880  24.4652  24.5821  25.5059  25.6169

          k = 0.5775 0.1552 0.0000 (  9200 PWs)   bands (ev):

    -7.9921  -7.9814  -7.9530  -7.9419  -2.1542  -2.1429  -1.8623  -1.8483
     0.6831   0.7290   1.0863   1.1000   1.2075   1.2777   1.6602   1.8158
     2.8867   2.9206   5.7196   5.8172   7.4583   7.6715   8.4133   8.5535
     9.6432   9.7089  10.4124  10.5919  10.8614  11.3473  11.5415  11.6073
    11.9027  12.7769  13.5373  14.1504  14.4834  14.8275  15.8481  16.0066
    16.1719  16.6272  17.0382  17.2159  17.3915  17.4732  17.8937  18.4169
    18.5209  19.1688  19.6293  19.7688  19.9319  20.1505  20.3132  20.7044
    21.0918  21.1518  21.5476  21.5974  23.1582  23.3333  23.6061  23.6526
    23.6585  24.0440  24.2759  24.4588  25.4416  25.5114

          k = 0.5775 0.1441 0.0000 (  9200 PWs)   bands (ev):

    -8.0067  -7.9959  -7.9671  -7.9560  -2.1897  -2.1784  -1.8972  -1.8832
     0.7227   0.7832   1.2150   1.2314   1.2842   1.3389   1.6542   1.8072
     2.8608   2.8954   5.7180   5.8218   7.4154   7.6285   8.5361   8.6688
     9.5481   9.6139  10.2546  10.4000  10.7835  11.3509  11.5426  11.5635
    11.9118  12.7749  13.5025  14.3063  14.3869  14.9271  15.8398  15.9259
    16.1951  16.5570  17.2286  17.3443  17.3715  17.5273  18.0099  18.5581
    18.5786  19.1370  19.7004  19.8880  20.0931  20.2200  20.3104  20.6951
    21.0811  21.1331  21.5134  21.6017  22.9462  23.1602  23.5652  23.5742
    23.5750  23.9449  24.1309  24.3887  25.3589  25.4025

          k = 0.5775 0.1330 0.0000 (  9192 PWs)   bands (ev):

    -8.0206  -8.0098  -7.9806  -7.9695  -2.2229  -2.2116  -1.9297  -1.9157
     0.7420   0.8146   1.3352   1.3582   1.3814   1.4231   1.6558   1.8024
     2.8362   2.8714   5.7122   5.8217   7.3751   7.5879   8.6561   8.7799
     9.4295   9.4969  10.0962  10.2262  10.7252  11.3663  11.5215  11.5682
    11.9424  12.7781  13.4698  14.2851  14.4596  15.0026  15.8277  15.8370
    16.2120  16.4838  17.2639  17.4213  17.4622  17.6822  18.1451  18.5898
    18.7417  19.1143  19.7532  20.0085  20.2514  20.2805  20.3034  20.6367
    21.0931  21.1222  21.5367  21.6322  22.7414  22.9761  23.4279  23.4796
    23.5499  23.7811  24.0451  24.3648  25.2730  25.2955

          k = 0.5775 0.1219 0.0000 (  9192 PWs)   bands (ev):

    -8.0338  -8.0230  -7.9935  -7.9823  -2.2536  -2.2422  -1.9598  -1.9457
     0.7481   0.8292   1.4356   1.4758   1.4908   1.5231   1.6755   1.8048
     2.8130   2.8488   5.7027   5.8176   7.3374   7.5496   8.7666   8.8788
     9.2966   9.3662   9.9518  10.0785  10.6788  11.3829  11.4807  11.6097
    11.9969  12.7872  13.4394  14.1780  14.6077  15.0435  15.7409  15.8138
    16.2265  16.4321  17.1596  17.5591  17.6151  17.8437  18.2905  18.6266
    18.9042  19.1004  19.7896  20.1305  20.2882  20.3236  20.3795  20.5673
    21.1228  21.1326  21.6024  21.6850  22.5476  22.7861  23.2602  23.3725
    23.5289  23.5975  23.9796  24.3618  25.1844  25.1992

          k = 0.5775 0.1108 0.0000 (  9186 PWs)   bands (ev):

    -8.0462  -8.0354  -8.0055  -7.9943  -2.2817  -2.2704  -1.9875  -1.9733
     0.7467   0.8333   1.4978   1.5747   1.6057   1.6316   1.7306   1.8232
     2.7914   2.8277   5.6900   5.8098   7.3022   7.5135   8.8563   8.9532
     9.1569   9.2289   9.8361   9.9693  10.6401  11.3943  11.4408  11.6598
    12.0744  12.8028  13.4113  14.0662  14.7477  15.0415  15.6391  15.7988
    16.2428  16.4177  17.0631  17.6253  17.8085  18.0041  18.4404  18.6812
    19.0632  19.0969  19.8137  20.2533  20.2650  20.3415  20.3442  20.6387
    21.1365  21.1980  21.6865  21.7547  22.3696  22.5933  23.0770  23.2580
    23.4174  23.5110  23.9186  24.3500  25.0918  25.1247

          k = 0.5775 0.0998 0.0000 (  9196 PWs)   bands (ev):

    -8.0576  -8.0468  -8.0166  -8.0054  -2.3073  -2.2960  -2.0125  -1.9984
     0.7412   0.8315   1.5221   1.6391   1.7215   1.7428   1.8193   1.8717
     2.7716   2.8083   5.6747   5.7989   7.2696   7.4796   8.9094   8.9880
     9.0165   9.0911   9.7664   9.9133  10.6073  11.3994  11.4011  11.7123
    12.1707  12.8250  13.3856  13.9506  14.8760  14.9965  15.5328  15.7838
    16.2654  16.4451  16.9768  17.6546  18.0005  18.1568  18.5891  18.7631
    19.1065  19.2149  19.8304  20.2187  20.2367  20.3329  20.3770  20.7918
    21.1579  21.2828  21.7675  21.8335  22.2143  22.4016  22.8885  23.1408
    23.2516  23.4968  23.8615  24.3061  24.9945  25.0725

          k = 0.5775 0.0887 0.0000 (  9188 PWs)   bands (ev):

    -8.0681  -8.0572  -8.0268  -8.0156  -2.3303  -2.3190  -2.0351  -2.0209
     0.7337   0.8264   1.5281   1.6677   1.8348   1.8527   1.9207   1.9504
     2.7535   2.7907   5.6575   5.7855   7.2396   7.4479   8.8798   8.9135
     8.9571   8.9760   9.7556   9.9180  10.5795  11.3611  11.3993  11.7630
    12.2802  12.8535  13.3625  13.8325  14.9174  14.9890  15.4233  15.7692
    16.2984  16.5083  16.9016  17.6489  18.1893  18.2944  18.7289  18.8745
    19.1346  19.3531  19.8448  20.0899  20.2111  20.2988  20.4985  20.9540
    21.1731  21.3778  21.8261  21.9051  22.0919  22.2231  22.7028  23.0252
    23.1095  23.4871  23.8125  24.2242  24.8931  25.0025

          k = 0.5775 0.0776 0.0000 (  9192 PWs)   bands (ev):

    -8.0775  -8.0666  -8.0359  -8.0247  -2.3507  -2.3393  -2.0550  -2.0408
     0.7256   0.8200   1.5273   1.6770   1.9427   1.9580   2.0218   2.0413
     2.7374   2.7749   5.6390   5.7703   7.2122   7.4186   8.7513   8.8315
     8.8731   8.9252   9.7982   9.9736  10.5561  11.3205  11.3958  11.8090
    12.3972  12.8874  13.3419  13.7142  14.8174  15.0836  15.3126  15.7556
    16.3449  16.5959  16.8377  17.6170  18.3728  18.4084  18.8481  19.0106
    19.1874  19.4695  19.8613  19.9811  20.1964  20.2459  20.6162  21.1157
    21.1618  21.4722  21.8445  21.8950  22.0157  22.1282  22.5276  22.9151
    22.9988  23.4833  23.7783  24.1145  24.7891  24.8838

          k = 0.5775 0.0665 0.0000 (  9186 PWs)   bands (ev):

    -8.0857  -8.0748  -8.0439  -8.0327  -2.3684  -2.3570  -2.0723  -2.0581
     0.7177   0.8131   1.5242   1.6788   2.0427   2.0558   2.1166   2.1312
     2.7233   2.7611   5.6199   5.7542   7.1875   7.3917   8.6337   8.7168
     8.8076   8.8550   9.8735  10.0609  10.5370  11.2787  11.3905  11.8485
    12.5164  12.9248  13.3239  13.5984  14.7088  15.1583  15.2027  15.7433
    16.4056  16.6967  16.7847  17.5691  18.4925  18.5484  18.9291  19.1643
    19.2694  19.5554  19.8801  19.9141  20.1818  20.2036  20.7269  21.1087
    21.2726  21.5524  21.7452  21.8138  21.9932  22.1714  22.3743  22.8136
    22.9200  23.4870  23.7683  23.9922  24.6850  24.7478

          k = 0.5775 0.0554 0.0000 (  9200 PWs)   bands (ev):

    -8.0928  -8.0819  -8.0508  -8.0395  -2.3834  -2.3720  -2.0870  -2.0727
     0.7104   0.8066   1.5204   1.6776   2.1323   2.1437   2.2019   2.2136
     2.7112   2.7493   5.6013   5.7379   7.1658   7.3676   8.5297   8.6159
     8.7350   8.7805   9.9616  10.1630  10.5222  11.2354  11.3846  11.8811
    12.6328  12.9635  13.3087  13.4887  14.6017  15.0966  15.2136  15.7324
    16.4782  16.7418  16.8012  17.5147  18.5467  18.7122  18.9555  19.3287
    19.3780  19.6101  19.8938  19.9082  20.1151  20.2415  20.8270  21.0146
    21.4169  21.5620  21.5985  21.7433  22.0159  22.2438  22.2610  22.7234
    22.8609  23.4994  23.7911  23.8699  24.5842  24.6143

          k = 0.5775 0.0443 0.0000 (  9202 PWs)   bands (ev):

    -8.0986  -8.0877  -8.0565  -8.0452  -2.3957  -2.3843  -2.0990  -2.0848
     0.7040   0.8008   1.5168   1.6756   2.2094   2.2194   2.2751   2.2851
     2.7012   2.7396   5.5840   5.7226   7.1472   7.3467   8.4416   8.5307
     8.6665   8.7115  10.0483  10.2680  10.5120  11.1908  11.3790  11.9066
    12.7413  13.0006  13.2961  13.3890  14.5037  14.9982  15.2522  15.7233
    16.5570  16.7082  16.9010  17.4610  18.5769  18.8589  18.9293  19.4970
    19.5033  19.6435  19.8963  19.9632  20.0565  20.3061  20.8913  20.9105
    21.3810  21.5044  21.5909  21.6894  22.0650  22.2061  22.3113  22.6462
    22.8050  23.5207  23.7576  23.8508  24.4904  24.4920

          k = 0.5775 0.0333 0.0000 (  9206 PWs)   bands (ev):

    -8.1032  -8.0923  -8.0609  -8.0497  -2.4053  -2.3939  -2.1084  -2.0941
     0.6989   0.7961   1.5137   1.6734   2.2720   2.2808   2.3343   2.3431
     2.6933   2.7319   5.5691   5.7092   7.1322   7.3294   8.3712   8.4629
     8.6088   8.6536  10.1237  10.3670  10.5063  11.1461  11.3742  11.9257
    12.8360  13.0333  13.2862  13.3043  14.4210  14.9121  15.2775  15.7160
    16.6337  16.6830  16.9891  17.4138  18.5909  18.8733  18.9824  19.6239
    19.6641  19.6679  19.8886  20.0231  20.0572  20.3811  20.7501  20.9620
    21.2240  21.4404  21.5353  21.7615  22.1228  22.2049  22.3657  22.5833
    22.7435  23.5490  23.6632  23.9437  24.3852  24.4102

          k = 0.5775 0.0222 0.0000 (  9216 PWs)   bands (ev):

    -8.1065  -8.0956  -8.0641  -8.0529  -2.4122  -2.4007  -2.1151  -2.1008
     0.6951   0.7925   1.5114   1.6717   2.3182   2.3261   2.3778   2.3859
     2.6876   2.7265   5.5576   5.6987   7.1211   7.3164   8.3198   8.4137
     8.5654   8.6104  10.1810  10.4510  10.5047  11.1046  11.3705  11.9387
    12.9106  13.0588  13.2391  13.2791  14.3584  14.8440  15.2930  15.7107
    16.6652  16.6993  17.0583  17.3772  18.5956  18.8140  19.0755  19.6897
    19.7100  19.8172  19.8753  20.0458  20.1610  20.4494  20.5992  20.9343
    21.1458  21.3297  21.4640  21.8669  22.1760  22.2278  22.4044  22.5356
    22.6793  23.5787  23.5930  24.0593  24.3020  24.3470

          k = 0.5775 0.0111 0.0000 (  9224 PWs)   bands (ev):

    -8.1084  -8.0975  -8.0661  -8.0548  -2.4163  -2.4049  -2.1191  -2.1048
     0.6928   0.7904   1.5100   1.6706   2.3466   2.3539   2.4044   2.4121
     2.6842   2.7232   5.5503   5.6921   7.1142   7.3084   8.2886   8.3839
     8.5387   8.5838  10.2161  10.5034  10.5115  11.0730  11.3682  11.9463
    12.9588  13.0750  13.1979  13.2747  14.3193  14.7999  15.3012  15.7075
    16.6550  16.7432  17.1028  17.3540  18.5962  18.7705  19.1329  19.7094
    19.7419  19.8616  19.9353  20.1401  20.2450  20.4458  20.4973  20.8464
    21.1453  21.2399  21.4079  21.9481  22.2140  22.2499  22.4271  22.5048
    22.6258  23.5490  23.6032  24.1794  24.2483  24.3066

          k = 0.5775 0.0000 0.0000 (  9234 PWs)   bands (ev):

    -8.1091  -8.0982  -8.0667  -8.0554  -2.4177  -2.4062  -2.1205  -2.1062
     0.6921   0.7897   1.5095   1.6702   2.3561   2.3633   2.4134   2.4209
     2.6831   2.7221   5.5478   5.6898   7.1119   7.3057   8.2782   8.3739
     8.5296   8.5748  10.2279  10.5054  10.5317  11.0608  11.3674  11.9488
    12.9755  13.0806  13.1838  13.2733  14.3061  14.7846  15.3037  15.7064
    16.6516  16.7588  17.1182  17.3461  18.5960  18.7546  19.1522  19.7181
    19.7470  19.8552  19.9826  20.2434  20.2782  20.3281  20.5146  20.8037
    21.1508  21.2046  21.3868  21.9794  22.2280  22.2584  22.4345  22.4938
    22.6040  23.5345  23.6123  24.2296  24.2471  24.2927

          k = 0.5583 0.0000 0.0000 (  9202 PWs)   bands (ev):

    -8.1175  -8.1066  -8.0747  -8.0634  -2.4037  -2.3923  -2.1055  -2.0913
     0.6713   0.7682   1.5013   1.6624   2.3592   2.3664   2.4165   2.4240
     2.7011   2.7415   5.5537   5.6963   7.1245   7.3168   8.2833   8.3795
     8.5332   8.5796  10.2398  10.5091  10.5355  11.0713  11.3413  11.9425
    12.9784  13.0833  13.1828  13.2998  14.3132  14.7928  15.2801  15.7170
    16.6875  16.7608  17.1194  17.3508  18.5715  18.7532  19.1099  19.6567
    19.7357  19.8878  19.9074  20.1744  20.2232  20.2283  20.5260  20.7477
    21.1084  21.1768  21.3318  22.0756  22.2818  22.3242  22.4440  22.4989
    22.6972  23.5857  23.6648  24.2218  24.2862  24.3478

          k = 0.5390 0.0000 0.0000 (  9192 PWs)   bands (ev):

    -8.1424  -8.1315  -8.0985  -8.0871  -2.3621  -2.3508  -2.0610  -2.0468
     0.6120   0.7072   1.4769   1.6395   2.3686   2.3757   2.4257   2.4332
     2.7515   2.7961   5.5721   5.7163   7.1619   7.3498   8.2987   8.3965
     8.5443   8.5940  10.2750  10.5205  10.5468  11.1023  11.2682  11.9243
    12.9869  13.0914  13.1792  13.3732  14.3344  14.8180  15.2179  15.7480
    16.7666  16.7860  17.1226  17.3643  18.5003  18.7476  19.0051  19.4876
    19.6905  19.7074  19.9153  19.9524  19.9752  20.1758  20.5536  20.5938
    20.8781  21.2057  21.2363  22.3103  22.3351  22.4615  22.5206  22.5646
    22.9188  23.7285  23.8140  24.1526  24.4443  24.5020

          k = 0.5198 0.0000 0.0000 (  9187 PWs)   bands (ev):

    -8.1829  -8.1719  -8.1371  -8.1257  -2.2945  -2.2833  -1.9878  -1.9738
     0.5222   0.6152   1.4374   1.6021   2.3841   2.3912   2.4410   2.4485
     2.8251   2.8762   5.6051   5.7515   7.2227   7.4034   8.3243   8.4249
     8.5634   8.6185  10.3320  10.5394  10.5656  11.1533  11.1602  11.8957
    13.0010  13.1047  13.1720  13.4788  14.3697  14.8625  15.1360  15.7978
    16.7757  16.9275  17.1270  17.3838  18.3878  18.7329  18.8698  19.2412
    19.4281  19.5785  19.5849  19.6427  19.9797  20.1338  20.3734  20.5884
    20.5984  21.0930  21.3020  22.3963  22.4659  22.5700  22.6008  22.8706
    23.1823  23.9352  24.0391  24.0575  24.5086  24.6759

          k = 0.5005 0.0000 0.0000 (  9183 PWs)   bands (ev):

    -8.2376  -8.2265  -8.1894  -8.1779  -2.2030  -2.1921  -1.8874  -1.8736
     0.4116   0.5025   1.3842   1.5516   2.4057   2.4129   2.4624   2.4699
     2.9106   2.9704   5.6557   5.8044   7.3045   7.4755   8.3603   8.4648
     8.5914   8.6534  10.4085  10.5656  10.5917  11.0305  11.2231  11.8594
    13.0205  13.1230  13.1594  13.5991  14.4187  14.9297  15.0524  15.8638
    16.7868  17.0913  17.1309  17.4040  18.2398  18.6996  18.7207  18.9440
    19.1030  19.2087  19.2764  19.4082  19.9054  20.1185  20.1196  20.3234
    20.6267  21.0759  21.3615  22.4422  22.4586  22.6522  22.8931  23.1871
    23.4175  23.9744  24.1693  24.3131  24.4943  24.6374

          k = 0.4813 0.0000 0.0000 (  9195 PWs)   bands (ev):

    -8.3048  -8.2936  -8.2537  -8.2421  -2.0911  -2.0803  -1.7616  -1.7480
     0.2899   0.3788   1.3190   1.4898   2.4334   2.4405   2.4897   2.4971
     2.9968   3.0676   5.7277   5.8781   7.4042   7.5633   8.4069   8.5161
     8.6293   8.6993  10.5018  10.5992  10.6251  10.8905  11.3103  11.8186
    13.0449  13.1395  13.1459  13.7182  14.4812  14.9801  15.0229  15.9424
    16.7980  17.1310  17.2575  17.4161  18.0603  18.5623  18.6154  18.6347
    18.7527  18.8285  18.9010  19.1796  19.7294  19.8590  20.0932  20.1287
    20.6684  21.1709  21.4131  22.3872  22.5225  22.7636  23.1485  23.4733
    23.5124  24.0005  24.3883  24.4847  24.5989  24.6082

          k = 0.4620 0.0000 0.0000 (  9213 PWs)   bands (ev):

    -8.3824  -8.3711  -8.3282  -8.3164  -1.9633  -1.9526  -1.6125  -1.5992
     0.1658   0.2530   1.2440   1.4184   2.4669   2.4740   2.5228   2.5302
     3.0748   3.1588   5.8247   5.9758   7.5177   7.6635   8.4642   8.5791
     8.6781   8.7568  10.6083  10.6399  10.6655  10.7489  11.4133  11.7769
    13.0738  13.1111  13.1729  13.8242  14.5563  14.9277  15.1427  16.0294
    16.8053  17.1208  17.4008  17.4063  17.8507  18.2689  18.3900  18.3930
    18.4516  18.5323  18.5337  18.9260  19.5076  19.6222  19.9407  20.1513
    20.7141  21.3381  21.4580  22.3032  22.5917  22.8950  23.3282  23.4323
    23.6906  24.1592  24.4981  24.5475  24.5687  24.8959

          k = 0.4428 0.0000 0.0000 (  9231 PWs)   bands (ev):

    -8.4685  -8.4571  -8.4110  -8.3991  -1.8258  -1.8148  -1.4425  -1.4295
     0.0483   0.1337   1.1613   1.3396   2.5062   2.5132   2.5616   2.5690
     3.1379   3.2372   5.9494   6.0998   7.6400   7.7723   8.5330   8.6538
     8.7385   8.8267  10.6127  10.6874  10.7127  10.7244  11.5304  11.7385
    13.0744  13.1066  13.2033  13.9106  14.6431  14.8998  15.2849  16.1190
    16.8004  17.0866  17.3575  17.4780  17.6105  17.9142  18.0235  18.0917
    18.1941  18.2087  18.4210  18.6694  19.2904  19.4365  19.8808  20.1802
    20.7640  21.4976  21.5420  22.1965  22.6694  23.0342  23.2863  23.3966
    23.8015  24.3284  24.5439  24.5584  24.6185  25.1463

          k = 0.4235 0.0000 0.0000 (  9223 PWs)   bands (ev):

    -8.5612  -8.5497  -8.5002  -8.4882  -1.6878  -1.6758  -1.2539  -1.2412
    -0.0524   0.0309   1.0734   1.2556   2.5510   2.5580   2.6058   2.6132
     3.1826   3.2989   6.1027   6.2513   7.7650   7.8857   8.6140   8.7399
     8.8111   8.9093  10.4879  10.7414  10.7664  10.8457  11.6598  11.7074
    13.0315  13.1423  13.2360  13.9757  14.7400  14.8968  15.4377  16.2020
    16.7657  17.0007  17.2582  17.3398  17.4284  17.5584  17.6592  17.7697
    17.9129  18.0100  18.3696  18.4258  19.1088  19.3258  19.9059  20.2111
    20.8179  21.5326  21.7619  22.0735  22.7593  23.1192  23.1659  23.3468
    23.7873  24.4475  24.5198  24.6049  24.6693  25.3292

          k = 0.4043 0.0000 0.0000 (  9229 PWs)   bands (ev):

    -8.6585  -8.6469  -8.5941  -8.5819  -1.5624  -1.5478  -1.0496  -1.0370
    -0.1225  -0.0425   0.9826   1.1685   2.6011   2.6081   2.6553   2.6626
     3.2076   3.3422   6.2841   6.4298   7.8853   7.9996   8.7084   8.8371
     8.8962   9.0054  10.3805  10.8015  10.8261  10.9677  11.6878  11.7996
    12.9868  13.1797  13.2698  14.0212  14.8444  14.9152  15.5802  16.2584
    16.6672  16.8292  17.0414  17.1204  17.2069  17.2436  17.3020  17.5215
    17.7260  17.8115  18.2045  18.4050  18.9769  19.2991  19.9992  20.2406
    20.8753  21.5627  21.9396  21.9832  22.8665  22.9421  23.2055  23.2717
    23.6614  24.4908  24.4909  24.5279  24.8096  25.4231

          k = 0.3850 0.0000 0.0000 (  9211 PWs)   bands (ev):

    -8.7589  -8.7472  -8.6911  -8.6788  -1.4674  -1.4477  -0.8325  -0.8199
    -0.1445  -0.0702   0.8918   1.0812   2.6563   2.6632   2.7097   2.7169
     3.2142   3.3673   6.4912   6.6336   7.9929   8.1100   8.8173   8.9447
     8.9942   9.1154  10.2964  10.8672  10.8913  11.0851  11.6839  11.9483
    12.9466  13.2171  13.3028  14.0496  14.9463  14.9519  15.6810  16.2436
    16.4742  16.5736  16.7233  16.8646  16.9564  16.9857  16.9971  17.3790
    17.6331  17.6457  18.0099  18.4838  18.8963  19.3475  20.1451  20.2656
    20.9350  21.5868  21.8001  22.1929  22.7580  22.9969  23.0051  23.3290
    23.4578  24.4074  24.4496  24.4523  24.9588  25.4263

          k = 0.3658 0.0000 0.0000 (  9239 PWs)   bands (ev):

    -8.8607  -8.8489  -8.7896  -8.7772  -1.4193  -1.3919  -0.6069  -0.5935
    -0.1023  -0.0362   0.8048   0.9968   2.7163   2.7231   2.7688   2.7760
     3.2044   3.3759   6.7207   6.8597   8.0800   8.2133   8.9408   9.0616
     9.1048   9.2397  10.2416  10.9379  10.9613  11.1919  11.6994  12.1040
    12.9184  13.2522  13.3324  14.0625  14.9756  15.0529  15.7023  16.1034
    16.2059  16.2719  16.3980  16.5361  16.6267  16.7141  16.9594  17.3235
    17.5545  17.5966  17.8433  18.5686  18.8639  19.4525  20.2825  20.3304
    20.9953  21.6030  21.6594  22.3782  22.5676  22.7692  23.1559  23.2090
    23.3143  24.2582  24.3473  24.3848  25.1073  25.1431

          k = 0.3465 0.0000 0.0000 (  9245 PWs)   bands (ev):

    -8.9627  -8.9508  -8.8885  -8.8760  -1.4229  -1.3866  -0.3795  -0.3633
     0.0080   0.0651   0.7280   0.9203   2.7806   2.7874   2.8321   2.8392
     3.1814   3.3705   6.9687   7.1045   8.1407   8.3063   9.0775   9.1863
     9.2279   9.3787  10.2214  11.0125  11.0353  11.2822  11.7375  12.2652
    12.9098  13.2817  13.3553  14.0599  14.9759  15.1276  15.6227  15.8527
    15.9047  15.9552  16.0887  16.2265  16.3179  16.4756  17.0084  17.3130
    17.5639  17.5855  17.7061  18.6430  18.8778  19.5953  20.2874  20.5404
    21.0538  21.5224  21.6088  22.3719  22.5145  22.5299  22.9389  23.2102
    23.3421  24.0920  24.2033  24.2775  24.8304  25.2433

          k = 0.3273 0.0000 0.0000 (  9249 PWs)   bands (ev):

    -9.0638  -9.0518  -8.9866  -8.9739  -1.4682  -1.4241  -0.1642  -0.1393
     0.1753   0.2249   0.6747   0.8612   2.8488   2.8555   2.8993   2.9064
     3.1481   3.3538   7.2313   7.3644   8.1724   8.3866   9.2242   9.3176
     9.3627   9.5325  10.2390  11.0900  11.1120  11.3514  11.8000  12.4302
    12.9275  13.3010  13.3668  14.0384  14.9100  15.1238  15.4598  15.5453
    15.5967  15.6398  15.8474  15.9415  16.0357  16.3163  17.1025  17.3211
    17.5832  17.6016  17.6603  18.7008  18.9385  19.7579  20.2752  20.7570
    21.1071  21.3955  21.6012  22.1765  22.2528  22.6427  22.6637  23.0157
    23.5406  23.9192  24.0463  24.0945  24.5192  24.8327

          k = 0.3080 0.0000 0.0000 (  9249 PWs)   bands (ev):

    -9.1628  -9.1507  -9.0828  -9.0701  -1.5398  -1.4899   0.0076   0.0576
     0.3835   0.4276   0.6756   0.8398   2.9206   2.9272   2.9699   2.9769
     3.1074   3.3284   7.5046   7.6357   8.1761   8.4525   9.3773   9.4544
     9.5080   9.7013  10.2944  11.1689  11.1899  11.3975  11.8868  12.5971
    12.9751  13.3046  13.3611  13.9899  14.7520  14.9681  15.2148  15.2571
    15.2955  15.3347  15.6880  15.7452  15.7867  16.2660  17.2173  17.3342
    17.5355  17.5806  17.8066  18.7394  19.0486  19.9210  20.2405  20.9492
    21.1505  21.2891  21.5768  21.9937  22.0002  22.3942  22.7080  22.7467
    23.7050  23.7500  23.8004  23.8908  24.2111  24.3991

          k = 0.2888 0.0000 0.0000 (  9267 PWs)   bands (ev):

    -9.2590  -9.2468  -9.1764  -9.1635  -1.6256  -1.5716   0.0908   0.1892
     0.6187   0.6595   0.7753   0.8935   2.9952   3.0018   3.0433   3.0502
     3.0618   3.2966   7.7848   7.9146   8.1556   8.5031   9.5339   9.5961
     9.6621   9.8845  10.3834  11.2472  11.2671  11.4226  11.9952  12.7635
    13.0520  13.2855  13.3318  13.9005  14.5152  14.6932  14.8798  15.0085
    15.0458  15.0603  15.4737  15.5783  15.7459  16.3128  17.3418  17.3443
    17.5145  17.5715  17.9700  18.7575  19.2099  20.0594  20.1777  21.0545
    21.1779  21.2200  21.5326  21.7449  21.8936  22.1387  22.4269  22.6977
    23.4082  23.5951  23.6717  23.7319  23.9018  24.2101

          k = 0.2695 0.0000 0.0000 (  9271 PWs)   bands (ev):

    -9.3515  -9.3393  -9.2665  -9.2536  -1.7175  -1.6606   0.0881   0.2317
     0.8716   0.9108   0.9700   1.0452   3.0137   3.0721   3.0786   3.1190
     3.1257   3.2607   8.0683   8.1164   8.1978   8.5384   9.6923   9.7422
     9.8219  10.0812  10.4987  11.3224  11.3410  11.4326  12.1183  12.9260
    13.1538  13.2371  13.2732  13.7543  14.2343  14.3786  14.5545  14.7414
    14.7780  14.9065  15.3059  15.4167  15.7689  16.4230  17.3453  17.4703
    17.5445  17.5509  18.1314  18.7541  19.4201  20.0817  20.1421  21.0037
    21.1825  21.2085  21.4664  21.5133  21.9038  21.9112  22.0786  22.5516
    22.9735  23.4609  23.4654  23.5378  23.5857  24.1526

          k = 0.2503 0.0000 0.0000 (  9281 PWs)   bands (ev):

    -9.4398  -9.4275  -9.3526  -9.3395  -1.8106  -1.7515   0.0430   0.2126
     1.1354   1.1744   1.2151   1.2663   2.9652   3.1507   3.1571   3.1961
     3.2028   3.2225   8.0637   8.3518   8.4823   8.5594   9.8518   9.8923
     9.9825  10.2890  10.6312  11.3913  11.4084  11.4349  12.2433  13.0774
    13.1556  13.1826  13.2729  13.5479  13.9404  14.0657  14.2552  14.4996
    14.5360  14.8135  15.1888  15.3050  15.7805  16.5671  17.3324  17.5149
    17.5987  17.6269  18.2838  18.7292  19.6700  19.9488  20.1499  20.8319
    21.1575  21.2531  21.3051  21.3774  21.6945  21.7190  21.9897  22.2492
    22.5487  23.2578  23.3040  23.3170  23.3707  24.0149

          k = 0.2310 0.0000 0.0000 (  9281 PWs)   bands (ev):

    -9.5233  -9.5110  -9.4341  -9.4209  -1.9017  -1.8410  -0.0174   0.1663
     1.4044   1.4451   1.4822   1.5210   2.9186   3.1838   3.2300   3.2363
     3.2739   3.2805   8.0025   8.5675   8.6320   8.7653  10.0118  10.0454
    10.1371  10.5033  10.7720  11.4366  11.4500  11.4653  12.3465  13.0425
    13.0623  13.1960  13.2962  13.3879  13.6702  13.7909  14.0066  14.2881
    14.3250  14.7768  15.1218  15.2413  15.7736  16.7228  17.3012  17.4602
    17.7230  17.7569  18.4273  18.6853  19.7780  19.9436  20.0939  20.6140
    21.0989  21.1252  21.2670  21.2862  21.3612  21.5150  21.8678  21.9994
    22.2039  22.9164  23.1202  23.2151  23.3180  23.9532

          k = 0.2118 0.0000 0.0000 (  9291 PWs)   bands (ev):

    -9.6016  -9.5892  -9.5104  -9.4972  -1.9889  -1.9270  -0.0819   0.1103
     1.6734   1.7184   1.7586   1.7903   2.8766   3.1463   3.3093   3.3154
     3.3516   3.3581   7.9365   8.5646   8.9056   9.0443  10.1710  10.2001
    10.2769  10.7155  10.9128  11.4411  11.4940  11.5075  12.3896  12.9039
    12.9189  13.0210  13.2035  13.3222  13.6142  13.6436  13.8478  14.1123
    14.1499  14.7832  15.0985  15.2192  15.7526  16.8703  17.2484  17.3847
    17.8381  17.9248  18.5640  18.6296  19.5714  19.9996  20.2125  20.3890
    20.9778  21.0072  21.0146  21.1381  21.1588  21.3677  21.4870  21.8549
    22.0657  22.5635  23.0689  23.1000  23.3092  23.8850

          k = 0.1925 0.0000 0.0000 (  9285 PWs)   bands (ev):

    -9.6741  -9.6617  -9.5813  -9.5680  -2.0707  -2.0080  -0.1457   0.0521
     1.9352   1.9896   2.0376   2.0646   2.8438   3.1121   3.3875   3.3935
     3.4282   3.4346   7.8687   8.5529   9.1691   9.3172  10.3267  10.3536
    10.3933  10.9097  11.0464  11.4432  11.5190  11.5309  12.3362  12.7414
    12.7492  12.7612  13.0594  13.1204  13.6784  13.7466  13.8159  13.9773
    14.0157  14.8217  15.1099  15.2300  15.7260  16.9866  17.1725  17.2879
    17.9376  18.1177  18.5762  18.6947  19.3358  19.8869  20.1752  20.3975
    20.6864  20.8549  20.8647  20.8874  20.9951  21.2010  21.2533  21.5895
    22.1270  22.2045  22.9588  23.1067  23.3409  23.7638

          k = 0.1733 0.0000 0.0000 (  9275 PWs)   bands (ev):

    -9.7406  -9.7282  -9.6463  -9.6330  -2.1464  -2.0829  -0.2064  -0.0044
     2.1773   2.2527   2.3145   2.3381   2.8299   3.0845   3.4635   3.4695
     3.5026   3.5089   7.8012   8.5343   9.4188   9.5819  10.4736  10.4822
    10.5020  11.0590  11.1666  11.4239  11.5224  11.5326  12.1932  12.4738
    12.5875  12.5980  12.9130  12.9795  13.7692  13.8861  13.8969  13.9063
    13.9253  14.8849  15.1467  15.2649  15.7034  17.0461  17.0737  17.1711
    18.0129  18.3156  18.5452  18.8176  19.0858  19.7657  19.9817  20.3213
    20.3828  20.5030  20.7478  20.7860  20.8432  21.1706  21.1839  21.2769
    21.8473  22.2406  22.8094  23.1116  23.4066  23.6591

          k = 0.1540 0.0000 0.0000 (  9273 PWs)   bands (ev):

    -9.8009  -9.7883  -9.7052  -9.6918  -2.2153  -2.1512  -0.2625  -0.0574
     2.3720   2.4974   2.5850   2.6058   2.8597   3.0707   3.5364   3.5423
     3.5738   3.5800   7.7356   8.5104   9.6496   9.8357  10.5443  10.6044
    10.6378  11.1291  11.2679  11.3593  11.5037  11.5127  12.0051  12.2351
    12.4270  12.4367  12.8557  12.9409  13.8392  13.8537  13.8789  14.0473
    14.0789  14.9673  15.2006  15.3160  15.6940  16.9545  17.0303  17.0372
    18.0534  18.4580  18.5502  18.8753  18.9250  19.6307  19.8121  20.0544
    20.1114  20.1803  20.5972  20.6879  20.7392  20.9629  21.1168  21.3465
    21.5015  22.3253  22.6929  22.9778  23.4986  23.6891

          k = 0.1348 0.0000 0.0000 (  9269 PWs)   bands (ev):

    -9.8545  -9.8420  -9.7576  -9.7442  -2.2768  -2.2123  -0.3133  -0.1057
     2.4794   2.6989   2.8447   2.8631   2.9695   3.0920   3.6047   3.6105
     3.6406   3.6467   7.6731   8.4828   9.8543  10.0748  10.5877  10.7015
    10.7488  11.1037  11.2461  11.3473  11.4661  11.4742  11.8180  12.0463
    12.2738  12.2832  12.9178  13.0099  13.8331  13.8729  13.9136  14.1918
    14.2980  15.0641  15.2647  15.3770  15.7056  16.8195  16.8907  16.9414
    18.0490  18.3579  18.5825  18.8763  18.9946  19.4509  19.6651  19.7850
    19.8859  19.9496  20.4440  20.5346  20.6798  20.7199  21.0876  21.1805
    21.4708  22.3523  22.6741  22.7558  23.6094  23.8204

          k = 0.1155 0.0000 0.0000 (  9267 PWs)   bands (ev):

    -9.9014  -9.8888  -9.8035  -9.7900  -2.3307  -2.2658  -0.3580  -0.1486
     2.5107   2.8114   3.0890   3.1050   3.1439   3.1899   3.6674   3.6731
     3.7017   3.7077   7.6147   8.4529  10.0237  10.2903  10.6138  10.7422
    10.8130  11.0103  11.1149  11.4100  11.4154  11.4229  11.6727  11.9269
    12.1328  12.1421  13.0805  13.1612  13.8611  13.9005  13.9422  14.3249
    14.5413  15.1699  15.3333  15.4424  15.7419  16.6745  16.7371  16.8009
    17.9933  18.0969  18.6129  18.9709  18.9728  19.2126  19.5286  19.6148
    19.7332  19.8410  20.2954  20.3885  20.4653  20.7225  20.9058  21.0777
    21.4712  22.3271  22.5139  22.7995  23.7319  23.9071

          k = 0.0963 0.0000 0.0000 (  9259 PWs)   bands (ev):

    -9.9414  -9.9288  -9.8426  -9.8291  -2.3766  -2.3115  -0.3965  -0.1855
     2.5102   2.8427   3.3122   3.3256   3.3343   3.3522   3.7231   3.7287
     3.7560   3.7619   7.5614   8.4222  10.1490  10.4558  10.6031  10.7125
    10.8072  10.9116  11.0227  11.3584  11.3658  11.4727  11.6025  11.8763
    12.0078  12.0172  13.3025  13.3620  13.9140  13.9406  13.9530  14.4412
    14.7950  15.2785  15.4014  15.5072  15.8019  16.5265  16.5831  16.6349
    17.8103  17.8876  18.6154  18.8293  18.9619  18.9813  19.3776  19.5878
    19.6706  19.8145  20.1577  20.2545  20.3616  20.7165  20.7404  21.0817
    21.3751  22.2706  22.2756  23.0335  23.6437  23.8590

          k = 0.0770 0.0000 0.0000 (  9245 PWs)   bands (ev):

    -9.9742  -9.9616  -9.8748  -9.8612  -2.4144  -2.3491  -0.4283  -0.2161
     2.5001   2.8440   3.5060   3.5135   3.5172   3.5250   3.7706   3.7762
     3.8023   3.8081   7.5144   8.3923  10.2295  10.5001  10.5280  10.6308
    10.7382  10.9065  11.0185  11.3022  11.3094  11.5443  11.6060  11.8689
    11.9018  11.9113  13.5442  13.5843  13.9189  13.9818  14.0201  14.5346
    15.0482  15.3829  15.4645  15.5674  15.8788  16.3837  16.4361  16.4660
    17.5272  17.7416  18.5854  18.6368  18.7376  18.9081  19.2017  19.6290
    19.6374  19.8293  20.0364  20.1372  20.3801  20.6657  20.7670  21.0941
    21.2423  22.0479  22.2028  23.3133  23.3530  23.9832

          k = 0.0578 0.0000 0.0000 (  9237 PWs)   bands (ev):

    -9.9999  -9.9873  -9.8999  -9.8863  -2.4440  -2.3784  -0.4532  -0.2402
     2.4887   2.8378   3.6594   3.6666   3.6744   3.6833   3.8089   3.8144
     3.8396   3.8454   7.4750   8.3652  10.2752  10.4202  10.4287  10.5330
    10.6451  11.0042  11.0738  11.2525  11.2598  11.6162  11.6469  11.8170
    11.8266  11.8791  13.7482  13.8046  13.9162  14.0535  14.0911  14.5996
    15.2887  15.4755  15.5185  15.6189  15.9626  16.2553  16.3050  16.3120
    17.2633  17.5725  18.4575  18.5372  18.5565  18.8139  19.0230  19.5406
    19.7043  19.8614  19.9363  20.0407  20.4873  20.7589  20.7960  21.1098
    21.1112  21.8323  22.1375  23.0576  23.5977  24.0961

          k = 0.0385 0.0000 0.0000 (  9225 PWs)   bands (ev):

   -10.0183 -10.0057  -9.9179  -9.9043  -2.4652  -2.3995  -0.4711  -0.2574
     2.4793   2.8311   3.7741   3.7802   3.7967   3.8041   3.8370   3.8424
     3.8669   3.8726   7.4450   8.3433  10.2978  10.3243  10.3415  10.4472
    10.5614  11.1106  11.1392  11.2139  11.2212  11.6760  11.6929  11.7552
    11.7649  11.8927  13.7845  14.0001  14.0469  14.1174  14.1543  14.6330
    15.4990  15.5488  15.5600  15.6585  16.0413  16.1516  16.1878  16.1998
    17.0371  17.4057  18.3178  18.4250  18.4887  18.7347  18.8719  19.4333
    19.7642  19.8616  19.8952  19.9688  20.6386  20.8214  20.9270  21.0033
    21.1245  21.6319  22.0843  22.7837  23.8607  24.1878

          k = 0.0193 0.0000 0.0000 (  9235 PWs)   bands (ev):

   -10.0294 -10.0167  -9.9288  -9.9152  -2.4779  -2.4122  -0.4819  -0.2678
     2.4732   2.8265   3.8457   3.8513   3.8542   3.8596   3.8732   3.8793
     3.8836   3.8893   7.4261   8.3288  10.2574  10.2803  10.3111  10.3901
    10.5056  11.1838  11.1877  11.1895  11.1968  11.7149  11.7176  11.7262
    11.7274  11.9031  13.7623  14.1434  14.1619  14.1833  14.1984  14.6392
    15.5862  15.5959  15.6514  15.6834  16.0834  16.1001  16.1072  16.1308
    16.8762  17.2763  18.2298  18.3453  18.4543  18.6844  18.7715  19.3519
    19.8049  19.8154  19.9198  19.9244  20.7896  20.8388  20.9325  21.0878
    21.1348  21.4619  22.0498  22.5715  24.0824  24.2483

          k = 0.0000 0.0000 0.0000 (  9215 PWs)   bands (ev):

   -10.0330 -10.0204  -9.9324  -9.9188  -2.4822  -2.4164  -0.4855  -0.2713
     2.4711   2.8248   3.8599   3.8653   3.8701   3.8755   3.8892   3.8949
     3.8992   3.9049   7.4196   8.3238  10.2351  10.2587  10.3141  10.3702
    10.4861  11.1812  11.1885  11.2038  11.2111  11.7050  11.7148  11.7283
    11.7381  11.9069  13.7520  14.1780  14.1986  14.2143  14.2349  14.6361
    15.5951  15.6122  15.6919  15.7089  16.0595  16.0775  16.1067  16.1247
    16.8160  17.2260  18.1998  18.3186  18.4420  18.6674  18.7364  19.3220
    19.7997  19.8194  19.9094  19.9288  20.8449  20.8647  20.9078  21.1385
    21.1575  21.3822  22.0378  22.4864  24.2261  24.2696

     Writing all to output data dir ./work/Al2S2.save/
 
     init_run     :      0.27s CPU      0.35s WALL (       1 calls)
     electrons    :    237.40s CPU    288.27s WALL (       1 calls)

     Called by init_run:
     wfcinit      :      0.00s CPU      0.00s WALL (       1 calls)
     potinit      :      0.10s CPU      0.12s WALL (       1 calls)
     hinit0       :      0.11s CPU      0.15s WALL (       1 calls)

     Called by electrons:
     c_bands      :    237.40s CPU    288.27s WALL (       1 calls)
     v_of_rho     :      0.00s CPU      0.01s WALL (       1 calls)
     newd         :      0.03s CPU      0.05s WALL (       1 calls)
     PAW_pot      :      0.09s CPU      0.11s WALL (       1 calls)

     Called by c_bands:
     init_us_2    :      0.05s CPU      0.06s WALL (      91 calls)
     init_us_2:cp :      0.05s CPU      0.06s WALL (      91 calls)
     cegterg      :    232.42s CPU    281.88s WALL (     355 calls)

     Called by *egterg:
     cdiaghg      :     32.82s CPU     33.51s WALL (    6396 calls)
     h_psi        :    123.99s CPU    170.73s WALL (    6751 calls)
     s_psi        :     12.54s CPU     12.80s WALL (    6751 calls)
     g_psi        :      0.33s CPU      0.34s WALL (    6305 calls)

     Called by h_psi:
     h_psi:calbec :     13.04s CPU     16.44s WALL (    6751 calls)
     vloc_psi     :     93.01s CPU    135.50s WALL (    6751 calls)
     add_vuspsi   :     17.03s CPU     17.84s WALL (    6751 calls)

     General routines
     calbec       :     13.02s CPU     16.42s WALL (    6751 calls)
     fft          :      0.00s CPU      0.01s WALL (      12 calls)
     fftw         :     88.88s CPU    129.72s WALL (  464120 calls)
     davcio       :      0.06s CPU      0.08s WALL (     182 calls)
 
     Parallel routines
 
     PWSCF        :   3m58.84s CPU   4m50.93s WALL

 
   This run was terminated on:  12:31: 9  17Jun2023            

=------------------------------------------------------------------------------=
   JOB DONE.
=------------------------------------------------------------------------------=
