
     Program PWSCF v.7.1 starts on 22Jun2023 at 13:11:51 

     This program is part of the open-source Quantum ESPRESSO suite
     for quantum simulation of materials; please cite
         "P. Giannozzi et al., J. Phys.:Condens. Matter 21 395502 (2009);
         "P. Giannozzi et al., J. Phys.:Condens. Matter 29 465901 (2017);
         "P. Giannozzi et al., J. Chem. Phys. 152 154105 (2020);
          URL http://www.quantum-espresso.org", 
     in publications or presentations arising from this work. More details at
     http://www.quantum-espresso.org/quote

     Parallel version (MPI), running on    10 processors

     MPI processes distributed on     1 nodes
     40988 MiB available memory on the printing compute node when the environment starts
 
     Waiting for input...
     Reading input from standard input

     Current dimensions of program PWSCF are:
     Max number of different atomic species (ntypx) = 10
     Max number of k-points (npk) =  40000
     Max angular momentum in pseudopotentials (lmaxx) =  4
     Message from routine volume:
     axis vectors are left-handed

     Atomic positions and unit cell read from directory:
     ./work/Al2O2.save/
     Atomic positions from file used, from input discarded
 
     Message from routine volume:
     axis vectors are left-handed
     file Al.pbe-n-kjpaw_psl.1.0.0.UPF: wavefunction(s)  3S 3P renormalized
     file O.pbe-n-kjpaw_psl.1.0.0.UPF: wavefunction(s)  2S 2P renormalized

     IMPORTANT: XC functional enforced from input :
     Exchange-correlation= VDW-DF2-B86R
                           (   1   4  26   0   2   0   0)
     Any further DFT definition will be discarded
     Please, verify this is what you really want

 
     R & G space division:  proc/nbgrp/npool/nimage =      10
     Subspace diagonalization in iterative solution of the eigenvalue problem:
     a serial algorithm will be used

 
     Parallelization info
     --------------------
     sticks:   dense  smooth     PW     G-vecs:    dense   smooth      PW
     Min          51      51     16                 8069     8069    1486
     Max          52      52     17                 8098     8098    1521
     Sum         511     511    163                80759    80759   14983
 
     Using Slab Decomposition
 


     bravais-lattice index     =            0
     lattice parameter (alat)  =       5.6077  a.u.
     unit-cell volume          =    1287.2819 (a.u.)^3
     number of atoms/cell      =            4
     number of atomic types    =            2
     number of electrons       =        18.00
     number of Kohn-Sham states=           30
     kinetic-energy cutoff     =      60.0000  Ry
     charge density cutoff     =     240.0000  Ry
     Exchange-correlation= VDW-DF2-B86R
                           (   1   4  26   0   2   0   0)

     celldm(1)=   5.607660  celldm(2)=   0.000000  celldm(3)=   0.000000
     celldm(4)=   0.000000  celldm(5)=   0.000000  celldm(6)=   0.000000

     crystal axes: (cart. coord. in units of alat)
               a(1) = (   0.865785   0.500416   0.000000 )  
               a(2) = (   0.865785  -0.500416   0.000000 )  
               a(3) = (   0.000000   0.000000   8.424753 )  

     reciprocal axes: (cart. coord. in units 2 pi/alat)
               b(1) = (  0.577511  0.999168  0.000000 )  
               b(2) = (  0.577511 -0.999168  0.000000 )  
               b(3) = (  0.000000  0.000000  0.118698 )  


     PseudoPot. # 1 for Al read from file:
     /home/mainadmin/research/danu/pseudo/Al.pbe-n-kjpaw_psl.1.0.0.UPF
     MD5 check sum: 502b6b27b9c6270cab5dd1084b96fa6d
     Pseudo is Projector augmented-wave + core cor, Zval =  3.0
     Generated using &quot;atomic&quot; code by A. Dal Corso  v.6.3
     Shape of augmentation charge: PSQ
     Using radial grid of 1135 points,  6 beta functions with: 
                l(1) =   0
                l(2) =   0
                l(3) =   1
                l(4) =   1
                l(5) =   2
                l(6) =   2
     Q(r) pseudized with 0 coefficients 


     PseudoPot. # 2 for O  read from file:
     /home/mainadmin/research/danu/pseudo/O.pbe-n-kjpaw_psl.1.0.0.UPF
     MD5 check sum: e99d9cef9b487d1ca56f5b95ecd0fd7a
     Pseudo is Projector augmented-wave + core cor, Zval =  6.0
     Generated using &quot;atomic&quot; code by A. Dal Corso  v.6.3
     Shape of augmentation charge: PSQ
     Using radial grid of 1095 points,  4 beta functions with: 
                l(1) =   0
                l(2) =   0
                l(3) =   1
                l(4) =   1
     Q(r) pseudized with 0 coefficients 


     atomic species   valence    mass     pseudopotential
        Al             3.00    26.98100     Al( 1.00)
        O              6.00    15.99900     O ( 1.00)

     No symmetry found


                                    s                        frac. trans.

      isym =  1     identity                                     

 cryst.   s( 1) = (     1          0          0      )
                  (     0          1          0      )
                  (     0          0          1      )

 cart.    s( 1) = (  1.0000000  0.0000000  0.0000000 )
                  (  0.0000000  1.0000000  0.0000000 )
                  (  0.0000000  0.0000000  1.0000000 )


   Cartesian axes

     site n.     atom                  positions (alat units)
         1           O   tau(   1) = (   1.1545543   0.0000000   3.5627092  )
         2           Al  tau(   2) = (   0.5770722   0.0000000   3.7830565  )
         3           Al  tau(   3) = (   0.5770183   0.0000000   4.6637429  )
         4           O   tau(   4) = (   1.1544952   0.0000000   4.8840673  )

   Crystallographic axes

     site n.     atom                  positions (cryst. coord.)
         1           O   tau(   1) = (  0.6667673  0.6667673  0.4228859  )
         2           Al  tau(   2) = (  0.3332653  0.3332653  0.4490406  )
         3           Al  tau(   3) = (  0.3332342  0.3332342  0.5535762  )
         4           O   tau(   4) = (  0.6667332  0.6667332  0.5797282  )

     number of k points=  1354 (tetrahedron method)
                       cart. coord. in units 2pi/alat
        k(    1) = (   0.0000000   0.0000000   0.0000000), wk =   0.0007396
        k(    2) = (   0.0111060  -0.0192148   0.0000000), wk =   0.0014793
        k(    3) = (   0.0222119  -0.0384296   0.0000000), wk =   0.0014793
        k(    4) = (   0.0333179  -0.0576443   0.0000000), wk =   0.0014793
        k(    5) = (   0.0444239  -0.0768591   0.0000000), wk =   0.0014793
        k(    6) = (   0.0555299  -0.0960739   0.0000000), wk =   0.0014793
        k(    7) = (   0.0666358  -0.1152887   0.0000000), wk =   0.0014793
        k(    8) = (   0.0777418  -0.1345034   0.0000000), wk =   0.0014793
        k(    9) = (   0.0888478  -0.1537182   0.0000000), wk =   0.0014793
        k(   10) = (   0.0999538  -0.1729330   0.0000000), wk =   0.0014793
        k(   11) = (   0.1110597  -0.1921478   0.0000000), wk =   0.0014793
        k(   12) = (   0.1221657  -0.2113625   0.0000000), wk =   0.0014793
        k(   13) = (   0.1332717  -0.2305773   0.0000000), wk =   0.0014793
        k(   14) = (   0.1443776  -0.2497921   0.0000000), wk =   0.0014793
        k(   15) = (   0.1554836  -0.2690069   0.0000000), wk =   0.0014793
        k(   16) = (   0.1665896  -0.2882216   0.0000000), wk =   0.0014793
        k(   17) = (   0.1776956  -0.3074364   0.0000000), wk =   0.0014793
        k(   18) = (   0.1888015  -0.3266512   0.0000000), wk =   0.0014793
        k(   19) = (   0.1999075  -0.3458660   0.0000000), wk =   0.0014793
        k(   20) = (   0.2110135  -0.3650807   0.0000000), wk =   0.0014793
        k(   21) = (   0.2221195  -0.3842955   0.0000000), wk =   0.0014793
        k(   22) = (   0.2332254  -0.4035103   0.0000000), wk =   0.0014793
        k(   23) = (   0.2443314  -0.4227251   0.0000000), wk =   0.0014793
        k(   24) = (   0.2554374  -0.4419399   0.0000000), wk =   0.0014793
        k(   25) = (   0.2665433  -0.4611546   0.0000000), wk =   0.0014793
        k(   26) = (   0.2776493  -0.4803694   0.0000000), wk =   0.0014793
        k(   27) = (  -0.2887553   0.4995842   0.0000000), wk =   0.0007396
        k(   28) = (   0.0111060   0.0192148   0.0000000), wk =   0.0014793
        k(   29) = (   0.0222119   0.0000000   0.0000000), wk =   0.0014793
        k(   30) = (   0.0333179  -0.0192148   0.0000000), wk =   0.0014793
        k(   31) = (   0.0444239  -0.0384296   0.0000000), wk =   0.0014793
        k(   32) = (   0.0555299  -0.0576443   0.0000000), wk =   0.0014793
        k(   33) = (   0.0666358  -0.0768591   0.0000000), wk =   0.0014793
        k(   34) = (   0.0777418  -0.0960739   0.0000000), wk =   0.0014793
        k(   35) = (   0.0888478  -0.1152887   0.0000000), wk =   0.0014793
        k(   36) = (   0.0999538  -0.1345034   0.0000000), wk =   0.0014793
        k(   37) = (   0.1110597  -0.1537182   0.0000000), wk =   0.0014793
        k(   38) = (   0.1221657  -0.1729330   0.0000000), wk =   0.0014793
        k(   39) = (   0.1332717  -0.1921478   0.0000000), wk =   0.0014793
        k(   40) = (   0.1443776  -0.2113625   0.0000000), wk =   0.0014793
        k(   41) = (   0.1554836  -0.2305773   0.0000000), wk =   0.0014793
        k(   42) = (   0.1665896  -0.2497921   0.0000000), wk =   0.0014793
        k(   43) = (   0.1776956  -0.2690069   0.0000000), wk =   0.0014793
        k(   44) = (   0.1888015  -0.2882216   0.0000000), wk =   0.0014793
        k(   45) = (   0.1999075  -0.3074364   0.0000000), wk =   0.0014793
        k(   46) = (   0.2110135  -0.3266512   0.0000000), wk =   0.0014793
        k(   47) = (   0.2221195  -0.3458660   0.0000000), wk =   0.0014793
        k(   48) = (   0.2332254  -0.3650807   0.0000000), wk =   0.0014793
        k(   49) = (   0.2443314  -0.3842955   0.0000000), wk =   0.0014793
        k(   50) = (   0.2554374  -0.4035103   0.0000000), wk =   0.0014793
        k(   51) = (   0.2665433  -0.4227251   0.0000000), wk =   0.0014793
        k(   52) = (   0.2776493  -0.4419399   0.0000000), wk =   0.0014793
        k(   53) = (   0.2887553  -0.4611546   0.0000000), wk =   0.0014793
        k(   54) = (  -0.2776493   0.5187990   0.0000000), wk =   0.0014793
        k(   55) = (  -0.2665433   0.4995842   0.0000000), wk =   0.0014793
        k(   56) = (  -0.2554374   0.4803694   0.0000000), wk =   0.0014793
        k(   57) = (  -0.2443314   0.4611546   0.0000000), wk =   0.0014793
        k(   58) = (  -0.2332254   0.4419399   0.0000000), wk =   0.0014793
        k(   59) = (  -0.2221195   0.4227251   0.0000000), wk =   0.0014793
        k(   60) = (  -0.2110135   0.4035103   0.0000000), wk =   0.0014793
        k(   61) = (  -0.1999075   0.3842955   0.0000000), wk =   0.0014793
        k(   62) = (  -0.1888015   0.3650807   0.0000000), wk =   0.0014793
        k(   63) = (  -0.1776956   0.3458660   0.0000000), wk =   0.0014793
        k(   64) = (  -0.1665896   0.3266512   0.0000000), wk =   0.0014793
        k(   65) = (  -0.1554836   0.3074364   0.0000000), wk =   0.0014793
        k(   66) = (  -0.1443776   0.2882216   0.0000000), wk =   0.0014793
        k(   67) = (  -0.1332717   0.2690069   0.0000000), wk =   0.0014793
        k(   68) = (  -0.1221657   0.2497921   0.0000000), wk =   0.0014793
        k(   69) = (  -0.1110597   0.2305773   0.0000000), wk =   0.0014793
        k(   70) = (  -0.0999538   0.2113625   0.0000000), wk =   0.0014793
        k(   71) = (  -0.0888478   0.1921478   0.0000000), wk =   0.0014793
        k(   72) = (  -0.0777418   0.1729330   0.0000000), wk =   0.0014793
        k(   73) = (  -0.0666358   0.1537182   0.0000000), wk =   0.0014793
        k(   74) = (  -0.0555299   0.1345034   0.0000000), wk =   0.0014793
        k(   75) = (  -0.0444239   0.1152887   0.0000000), wk =   0.0014793
        k(   76) = (  -0.0333179   0.0960739   0.0000000), wk =   0.0014793
        k(   77) = (  -0.0222119   0.0768591   0.0000000), wk =   0.0014793
        k(   78) = (  -0.0111060   0.0576443   0.0000000), wk =   0.0014793
        k(   79) = (  -0.0000000   0.0384296   0.0000000), wk =   0.0014793
        k(   80) = (   0.0222119   0.0384296   0.0000000), wk =   0.0014793
        k(   81) = (   0.0333179   0.0192148   0.0000000), wk =   0.0014793
        k(   82) = (   0.0444239   0.0000000   0.0000000), wk =   0.0014793
        k(   83) = (   0.0555299  -0.0192148   0.0000000), wk =   0.0014793
        k(   84) = (   0.0666358  -0.0384296   0.0000000), wk =   0.0014793
        k(   85) = (   0.0777418  -0.0576443   0.0000000), wk =   0.0014793
        k(   86) = (   0.0888478  -0.0768591   0.0000000), wk =   0.0014793
        k(   87) = (   0.0999538  -0.0960739   0.0000000), wk =   0.0014793
        k(   88) = (   0.1110597  -0.1152887   0.0000000), wk =   0.0014793
        k(   89) = (   0.1221657  -0.1345034   0.0000000), wk =   0.0014793
        k(   90) = (   0.1332717  -0.1537182   0.0000000), wk =   0.0014793
        k(   91) = (   0.1443776  -0.1729330   0.0000000), wk =   0.0014793
        k(   92) = (   0.1554836  -0.1921478   0.0000000), wk =   0.0014793
        k(   93) = (   0.1665896  -0.2113625   0.0000000), wk =   0.0014793
        k(   94) = (   0.1776956  -0.2305773   0.0000000), wk =   0.0014793
        k(   95) = (   0.1888015  -0.2497921   0.0000000), wk =   0.0014793
        k(   96) = (   0.1999075  -0.2690069   0.0000000), wk =   0.0014793
        k(   97) = (   0.2110135  -0.2882216   0.0000000), wk =   0.0014793
        k(   98) = (   0.2221195  -0.3074364   0.0000000), wk =   0.0014793
        k(   99) = (   0.2332254  -0.3266512   0.0000000), wk =   0.0014793
        k(  100) = (   0.2443314  -0.3458660   0.0000000), wk =   0.0014793
        k(  101) = (   0.2554374  -0.3650807   0.0000000), wk =   0.0014793
        k(  102) = (   0.2665433  -0.3842955   0.0000000), wk =   0.0014793
        k(  103) = (   0.2776493  -0.4035103   0.0000000), wk =   0.0014793
        k(  104) = (   0.2887553  -0.4227251   0.0000000), wk =   0.0014793
        k(  105) = (   0.2998613  -0.4419399   0.0000000), wk =   0.0014793
        k(  106) = (  -0.2665433   0.5380137   0.0000000), wk =   0.0014793
        k(  107) = (  -0.2554374   0.5187990   0.0000000), wk =   0.0014793
        k(  108) = (  -0.2443314   0.4995842   0.0000000), wk =   0.0014793
        k(  109) = (  -0.2332254   0.4803694   0.0000000), wk =   0.0014793
        k(  110) = (  -0.2221195   0.4611546   0.0000000), wk =   0.0014793
        k(  111) = (  -0.2110135   0.4419399   0.0000000), wk =   0.0014793
        k(  112) = (  -0.1999075   0.4227251   0.0000000), wk =   0.0014793
        k(  113) = (  -0.1888015   0.4035103   0.0000000), wk =   0.0014793
        k(  114) = (  -0.1776956   0.3842955   0.0000000), wk =   0.0014793
        k(  115) = (  -0.1665896   0.3650807   0.0000000), wk =   0.0014793
        k(  116) = (  -0.1554836   0.3458660   0.0000000), wk =   0.0014793
        k(  117) = (  -0.1443776   0.3266512   0.0000000), wk =   0.0014793
        k(  118) = (  -0.1332717   0.3074364   0.0000000), wk =   0.0014793
        k(  119) = (  -0.1221657   0.2882216   0.0000000), wk =   0.0014793
        k(  120) = (  -0.1110597   0.2690069   0.0000000), wk =   0.0014793
        k(  121) = (  -0.0999538   0.2497921   0.0000000), wk =   0.0014793
        k(  122) = (  -0.0888478   0.2305773   0.0000000), wk =   0.0014793
        k(  123) = (  -0.0777418   0.2113625   0.0000000), wk =   0.0014793
        k(  124) = (  -0.0666358   0.1921478   0.0000000), wk =   0.0014793
        k(  125) = (  -0.0555299   0.1729330   0.0000000), wk =   0.0014793
        k(  126) = (  -0.0444239   0.1537182   0.0000000), wk =   0.0014793
        k(  127) = (  -0.0333179   0.1345034   0.0000000), wk =   0.0014793
        k(  128) = (  -0.0222119   0.1152887   0.0000000), wk =   0.0014793
        k(  129) = (  -0.0111060   0.0960739   0.0000000), wk =   0.0014793
        k(  130) = (   0.0000000   0.0768591   0.0000000), wk =   0.0014793
        k(  131) = (   0.0111060   0.0576443   0.0000000), wk =   0.0014793
        k(  132) = (   0.0333179   0.0576443   0.0000000), wk =   0.0014793
        k(  133) = (   0.0444239   0.0384296   0.0000000), wk =   0.0014793
        k(  134) = (   0.0555299   0.0192148   0.0000000), wk =   0.0014793
        k(  135) = (   0.0666358   0.0000000   0.0000000), wk =   0.0014793
        k(  136) = (   0.0777418  -0.0192148   0.0000000), wk =   0.0014793
        k(  137) = (   0.0888478  -0.0384296   0.0000000), wk =   0.0014793
        k(  138) = (   0.0999538  -0.0576443   0.0000000), wk =   0.0014793
        k(  139) = (   0.1110597  -0.0768591   0.0000000), wk =   0.0014793
        k(  140) = (   0.1221657  -0.0960739   0.0000000), wk =   0.0014793
        k(  141) = (   0.1332717  -0.1152887   0.0000000), wk =   0.0014793
        k(  142) = (   0.1443776  -0.1345034   0.0000000), wk =   0.0014793
        k(  143) = (   0.1554836  -0.1537182   0.0000000), wk =   0.0014793
        k(  144) = (   0.1665896  -0.1729330   0.0000000), wk =   0.0014793
        k(  145) = (   0.1776956  -0.1921478   0.0000000), wk =   0.0014793
        k(  146) = (   0.1888015  -0.2113625   0.0000000), wk =   0.0014793
        k(  147) = (   0.1999075  -0.2305773   0.0000000), wk =   0.0014793
        k(  148) = (   0.2110135  -0.2497921   0.0000000), wk =   0.0014793
        k(  149) = (   0.2221195  -0.2690069   0.0000000), wk =   0.0014793
        k(  150) = (   0.2332254  -0.2882216   0.0000000), wk =   0.0014793
        k(  151) = (   0.2443314  -0.3074364   0.0000000), wk =   0.0014793
        k(  152) = (   0.2554374  -0.3266512   0.0000000), wk =   0.0014793
        k(  153) = (   0.2665433  -0.3458660   0.0000000), wk =   0.0014793
        k(  154) = (   0.2776493  -0.3650807   0.0000000), wk =   0.0014793
        k(  155) = (   0.2887553  -0.3842955   0.0000000), wk =   0.0014793
        k(  156) = (   0.2998613  -0.4035103   0.0000000), wk =   0.0014793
        k(  157) = (   0.3109672  -0.4227251   0.0000000), wk =   0.0014793
        k(  158) = (  -0.2554374   0.5572285   0.0000000), wk =   0.0014793
        k(  159) = (  -0.2443314   0.5380137   0.0000000), wk =   0.0014793
        k(  160) = (  -0.2332254   0.5187990   0.0000000), wk =   0.0014793
        k(  161) = (  -0.2221195   0.4995842   0.0000000), wk =   0.0014793
        k(  162) = (  -0.2110135   0.4803694   0.0000000), wk =   0.0014793
        k(  163) = (  -0.1999075   0.4611546   0.0000000), wk =   0.0014793
        k(  164) = (  -0.1888015   0.4419399   0.0000000), wk =   0.0014793
        k(  165) = (  -0.1776956   0.4227251   0.0000000), wk =   0.0014793
        k(  166) = (  -0.1665896   0.4035103   0.0000000), wk =   0.0014793
        k(  167) = (  -0.1554836   0.3842955   0.0000000), wk =   0.0014793
        k(  168) = (  -0.1443776   0.3650807   0.0000000), wk =   0.0014793
        k(  169) = (  -0.1332717   0.3458660   0.0000000), wk =   0.0014793
        k(  170) = (  -0.1221657   0.3266512   0.0000000), wk =   0.0014793
        k(  171) = (  -0.1110597   0.3074364   0.0000000), wk =   0.0014793
        k(  172) = (  -0.0999538   0.2882216   0.0000000), wk =   0.0014793
        k(  173) = (  -0.0888478   0.2690069   0.0000000), wk =   0.0014793
        k(  174) = (  -0.0777418   0.2497921   0.0000000), wk =   0.0014793
        k(  175) = (  -0.0666358   0.2305773   0.0000000), wk =   0.0014793
        k(  176) = (  -0.0555299   0.2113625   0.0000000), wk =   0.0014793
        k(  177) = (  -0.0444239   0.1921478   0.0000000), wk =   0.0014793
        k(  178) = (  -0.0333179   0.1729330   0.0000000), wk =   0.0014793
        k(  179) = (  -0.0222119   0.1537182   0.0000000), wk =   0.0014793
        k(  180) = (  -0.0111060   0.1345034   0.0000000), wk =   0.0014793
        k(  181) = (  -0.0000000   0.1152887   0.0000000), wk =   0.0014793
        k(  182) = (   0.0111060   0.0960739   0.0000000), wk =   0.0014793
        k(  183) = (   0.0222119   0.0768591   0.0000000), wk =   0.0014793
        k(  184) = (   0.0444239   0.0768591   0.0000000), wk =   0.0014793
        k(  185) = (   0.0555299   0.0576443   0.0000000), wk =   0.0014793
        k(  186) = (   0.0666358   0.0384296   0.0000000), wk =   0.0014793
        k(  187) = (   0.0777418   0.0192148   0.0000000), wk =   0.0014793
        k(  188) = (   0.0888478   0.0000000   0.0000000), wk =   0.0014793
        k(  189) = (   0.0999538  -0.0192148   0.0000000), wk =   0.0014793
        k(  190) = (   0.1110597  -0.0384296   0.0000000), wk =   0.0014793
        k(  191) = (   0.1221657  -0.0576443   0.0000000), wk =   0.0014793
        k(  192) = (   0.1332717  -0.0768591   0.0000000), wk =   0.0014793
        k(  193) = (   0.1443776  -0.0960739   0.0000000), wk =   0.0014793
        k(  194) = (   0.1554836  -0.1152887   0.0000000), wk =   0.0014793
        k(  195) = (   0.1665896  -0.1345034   0.0000000), wk =   0.0014793
        k(  196) = (   0.1776956  -0.1537182   0.0000000), wk =   0.0014793
        k(  197) = (   0.1888015  -0.1729330   0.0000000), wk =   0.0014793
        k(  198) = (   0.1999075  -0.1921478   0.0000000), wk =   0.0014793
        k(  199) = (   0.2110135  -0.2113625   0.0000000), wk =   0.0014793
        k(  200) = (   0.2221195  -0.2305773   0.0000000), wk =   0.0014793
        k(  201) = (   0.2332254  -0.2497921   0.0000000), wk =   0.0014793
        k(  202) = (   0.2443314  -0.2690069   0.0000000), wk =   0.0014793
        k(  203) = (   0.2554374  -0.2882216   0.0000000), wk =   0.0014793
        k(  204) = (   0.2665433  -0.3074364   0.0000000), wk =   0.0014793
        k(  205) = (   0.2776493  -0.3266512   0.0000000), wk =   0.0014793
        k(  206) = (   0.2887553  -0.3458660   0.0000000), wk =   0.0014793
        k(  207) = (   0.2998613  -0.3650807   0.0000000), wk =   0.0014793
        k(  208) = (   0.3109672  -0.3842955   0.0000000), wk =   0.0014793
        k(  209) = (   0.3220732  -0.4035103   0.0000000), wk =   0.0014793
        k(  210) = (  -0.2443314   0.5764433   0.0000000), wk =   0.0014793
        k(  211) = (  -0.2332254   0.5572285   0.0000000), wk =   0.0014793
        k(  212) = (  -0.2221195   0.5380137   0.0000000), wk =   0.0014793
        k(  213) = (  -0.2110135   0.5187990   0.0000000), wk =   0.0014793
        k(  214) = (  -0.1999075   0.4995842   0.0000000), wk =   0.0014793
        k(  215) = (  -0.1888015   0.4803694   0.0000000), wk =   0.0014793
        k(  216) = (  -0.1776956   0.4611546   0.0000000), wk =   0.0014793
        k(  217) = (  -0.1665896   0.4419399   0.0000000), wk =   0.0014793
        k(  218) = (  -0.1554836   0.4227251   0.0000000), wk =   0.0014793
        k(  219) = (  -0.1443776   0.4035103   0.0000000), wk =   0.0014793
        k(  220) = (  -0.1332717   0.3842955   0.0000000), wk =   0.0014793
        k(  221) = (  -0.1221657   0.3650807   0.0000000), wk =   0.0014793
        k(  222) = (  -0.1110597   0.3458660   0.0000000), wk =   0.0014793
        k(  223) = (  -0.0999538   0.3266512   0.0000000), wk =   0.0014793
        k(  224) = (  -0.0888478   0.3074364   0.0000000), wk =   0.0014793
        k(  225) = (  -0.0777418   0.2882216   0.0000000), wk =   0.0014793
        k(  226) = (  -0.0666358   0.2690069   0.0000000), wk =   0.0014793
        k(  227) = (  -0.0555299   0.2497921   0.0000000), wk =   0.0014793
        k(  228) = (  -0.0444239   0.2305773   0.0000000), wk =   0.0014793
        k(  229) = (  -0.0333179   0.2113625   0.0000000), wk =   0.0014793
        k(  230) = (  -0.0222119   0.1921478   0.0000000), wk =   0.0014793
        k(  231) = (  -0.0111060   0.1729330   0.0000000), wk =   0.0014793
        k(  232) = (   0.0000000   0.1537182   0.0000000), wk =   0.0014793
        k(  233) = (   0.0111060   0.1345034   0.0000000), wk =   0.0014793
        k(  234) = (   0.0222119   0.1152887   0.0000000), wk =   0.0014793
        k(  235) = (   0.0333179   0.0960739   0.0000000), wk =   0.0014793
        k(  236) = (   0.0555299   0.0960739   0.0000000), wk =   0.0014793
        k(  237) = (   0.0666358   0.0768591   0.0000000), wk =   0.0014793
        k(  238) = (   0.0777418   0.0576443   0.0000000), wk =   0.0014793
        k(  239) = (   0.0888478   0.0384296   0.0000000), wk =   0.0014793
        k(  240) = (   0.0999538   0.0192148   0.0000000), wk =   0.0014793
        k(  241) = (   0.1110597   0.0000000   0.0000000), wk =   0.0014793
        k(  242) = (   0.1221657  -0.0192148   0.0000000), wk =   0.0014793
        k(  243) = (   0.1332717  -0.0384296   0.0000000), wk =   0.0014793
        k(  244) = (   0.1443776  -0.0576443   0.0000000), wk =   0.0014793
        k(  245) = (   0.1554836  -0.0768591   0.0000000), wk =   0.0014793
        k(  246) = (   0.1665896  -0.0960739   0.0000000), wk =   0.0014793
        k(  247) = (   0.1776956  -0.1152887   0.0000000), wk =   0.0014793
        k(  248) = (   0.1888015  -0.1345034   0.0000000), wk =   0.0014793
        k(  249) = (   0.1999075  -0.1537182   0.0000000), wk =   0.0014793
        k(  250) = (   0.2110135  -0.1729330   0.0000000), wk =   0.0014793
        k(  251) = (   0.2221195  -0.1921478   0.0000000), wk =   0.0014793
        k(  252) = (   0.2332254  -0.2113625   0.0000000), wk =   0.0014793
        k(  253) = (   0.2443314  -0.2305773   0.0000000), wk =   0.0014793
        k(  254) = (   0.2554374  -0.2497921   0.0000000), wk =   0.0014793
        k(  255) = (   0.2665433  -0.2690069   0.0000000), wk =   0.0014793
        k(  256) = (   0.2776493  -0.2882216   0.0000000), wk =   0.0014793
        k(  257) = (   0.2887553  -0.3074364   0.0000000), wk =   0.0014793
        k(  258) = (   0.2998613  -0.3266512   0.0000000), wk =   0.0014793
        k(  259) = (   0.3109672  -0.3458660   0.0000000), wk =   0.0014793
        k(  260) = (   0.3220732  -0.3650807   0.0000000), wk =   0.0014793
        k(  261) = (   0.3331792  -0.3842955   0.0000000), wk =   0.0014793
        k(  262) = (  -0.2332254   0.5956581   0.0000000), wk =   0.0014793
        k(  263) = (  -0.2221195   0.5764433   0.0000000), wk =   0.0014793
        k(  264) = (  -0.2110135   0.5572285   0.0000000), wk =   0.0014793
        k(  265) = (  -0.1999075   0.5380137   0.0000000), wk =   0.0014793
        k(  266) = (  -0.1888015   0.5187990   0.0000000), wk =   0.0014793
        k(  267) = (  -0.1776956   0.4995842   0.0000000), wk =   0.0014793
        k(  268) = (  -0.1665896   0.4803694   0.0000000), wk =   0.0014793
        k(  269) = (  -0.1554836   0.4611546   0.0000000), wk =   0.0014793
        k(  270) = (  -0.1443776   0.4419399   0.0000000), wk =   0.0014793
        k(  271) = (  -0.1332717   0.4227251   0.0000000), wk =   0.0014793
        k(  272) = (  -0.1221657   0.4035103   0.0000000), wk =   0.0014793
        k(  273) = (  -0.1110597   0.3842955   0.0000000), wk =   0.0014793
        k(  274) = (  -0.0999538   0.3650807   0.0000000), wk =   0.0014793
        k(  275) = (  -0.0888478   0.3458660   0.0000000), wk =   0.0014793
        k(  276) = (  -0.0777418   0.3266512   0.0000000), wk =   0.0014793
        k(  277) = (  -0.0666358   0.3074364   0.0000000), wk =   0.0014793
        k(  278) = (  -0.0555299   0.2882216   0.0000000), wk =   0.0014793
        k(  279) = (  -0.0444239   0.2690069   0.0000000), wk =   0.0014793
        k(  280) = (  -0.0333179   0.2497921   0.0000000), wk =   0.0014793
        k(  281) = (  -0.0222119   0.2305773   0.0000000), wk =   0.0014793
        k(  282) = (  -0.0111060   0.2113625   0.0000000), wk =   0.0014793
        k(  283) = (   0.0000000   0.1921478   0.0000000), wk =   0.0014793
        k(  284) = (   0.0111060   0.1729330   0.0000000), wk =   0.0014793
        k(  285) = (   0.0222119   0.1537182   0.0000000), wk =   0.0014793
        k(  286) = (   0.0333179   0.1345034   0.0000000), wk =   0.0014793
        k(  287) = (   0.0444239   0.1152887   0.0000000), wk =   0.0014793
        k(  288) = (   0.0666358   0.1152887   0.0000000), wk =   0.0014793
        k(  289) = (   0.0777418   0.0960739   0.0000000), wk =   0.0014793
        k(  290) = (   0.0888478   0.0768591   0.0000000), wk =   0.0014793
        k(  291) = (   0.0999538   0.0576443   0.0000000), wk =   0.0014793
        k(  292) = (   0.1110597   0.0384296   0.0000000), wk =   0.0014793
        k(  293) = (   0.1221657   0.0192148   0.0000000), wk =   0.0014793
        k(  294) = (   0.1332717   0.0000000   0.0000000), wk =   0.0014793
        k(  295) = (   0.1443776  -0.0192148   0.0000000), wk =   0.0014793
        k(  296) = (   0.1554836  -0.0384296   0.0000000), wk =   0.0014793
        k(  297) = (   0.1665896  -0.0576443   0.0000000), wk =   0.0014793
        k(  298) = (   0.1776956  -0.0768591   0.0000000), wk =   0.0014793
        k(  299) = (   0.1888015  -0.0960739   0.0000000), wk =   0.0014793
        k(  300) = (   0.1999075  -0.1152887   0.0000000), wk =   0.0014793
        k(  301) = (   0.2110135  -0.1345034   0.0000000), wk =   0.0014793
        k(  302) = (   0.2221195  -0.1537182   0.0000000), wk =   0.0014793
        k(  303) = (   0.2332254  -0.1729330   0.0000000), wk =   0.0014793
        k(  304) = (   0.2443314  -0.1921478   0.0000000), wk =   0.0014793
        k(  305) = (   0.2554374  -0.2113625   0.0000000), wk =   0.0014793
        k(  306) = (   0.2665433  -0.2305773   0.0000000), wk =   0.0014793
        k(  307) = (   0.2776493  -0.2497921   0.0000000), wk =   0.0014793
        k(  308) = (   0.2887553  -0.2690069   0.0000000), wk =   0.0014793
        k(  309) = (   0.2998613  -0.2882216   0.0000000), wk =   0.0014793
        k(  310) = (   0.3109672  -0.3074364   0.0000000), wk =   0.0014793
        k(  311) = (   0.3220732  -0.3266512   0.0000000), wk =   0.0014793
        k(  312) = (   0.3331792  -0.3458660   0.0000000), wk =   0.0014793
        k(  313) = (   0.3442852  -0.3650807   0.0000000), wk =   0.0014793
        k(  314) = (  -0.2221195   0.6148728   0.0000000), wk =   0.0014793
        k(  315) = (  -0.2110135   0.5956581   0.0000000), wk =   0.0014793
        k(  316) = (  -0.1999075   0.5764433   0.0000000), wk =   0.0014793
        k(  317) = (  -0.1888015   0.5572285   0.0000000), wk =   0.0014793
        k(  318) = (  -0.1776956   0.5380137   0.0000000), wk =   0.0014793
        k(  319) = (  -0.1665896   0.5187990   0.0000000), wk =   0.0014793
        k(  320) = (  -0.1554836   0.4995842   0.0000000), wk =   0.0014793
        k(  321) = (  -0.1443776   0.4803694   0.0000000), wk =   0.0014793
        k(  322) = (  -0.1332717   0.4611546   0.0000000), wk =   0.0014793
        k(  323) = (  -0.1221657   0.4419399   0.0000000), wk =   0.0014793
        k(  324) = (  -0.1110597   0.4227251   0.0000000), wk =   0.0014793
        k(  325) = (  -0.0999538   0.4035103   0.0000000), wk =   0.0014793
        k(  326) = (  -0.0888478   0.3842955   0.0000000), wk =   0.0014793
        k(  327) = (  -0.0777418   0.3650807   0.0000000), wk =   0.0014793
        k(  328) = (  -0.0666358   0.3458660   0.0000000), wk =   0.0014793
        k(  329) = (  -0.0555299   0.3266512   0.0000000), wk =   0.0014793
        k(  330) = (  -0.0444239   0.3074364   0.0000000), wk =   0.0014793
        k(  331) = (  -0.0333179   0.2882216   0.0000000), wk =   0.0014793
        k(  332) = (  -0.0222119   0.2690069   0.0000000), wk =   0.0014793
        k(  333) = (  -0.0111060   0.2497921   0.0000000), wk =   0.0014793
        k(  334) = (  -0.0000000   0.2305773   0.0000000), wk =   0.0014793
        k(  335) = (   0.0111060   0.2113625   0.0000000), wk =   0.0014793
        k(  336) = (   0.0222119   0.1921478   0.0000000), wk =   0.0014793
        k(  337) = (   0.0333179   0.1729330   0.0000000), wk =   0.0014793
        k(  338) = (   0.0444239   0.1537182   0.0000000), wk =   0.0014793
        k(  339) = (   0.0555299   0.1345034   0.0000000), wk =   0.0014793
        k(  340) = (   0.0777418   0.1345034   0.0000000), wk =   0.0014793
        k(  341) = (   0.0888478   0.1152887   0.0000000), wk =   0.0014793
        k(  342) = (   0.0999538   0.0960739   0.0000000), wk =   0.0014793
        k(  343) = (   0.1110597   0.0768591   0.0000000), wk =   0.0014793
        k(  344) = (   0.1221657   0.0576443   0.0000000), wk =   0.0014793
        k(  345) = (   0.1332717   0.0384296   0.0000000), wk =   0.0014793
        k(  346) = (   0.1443776   0.0192148   0.0000000), wk =   0.0014793
        k(  347) = (   0.1554836   0.0000000   0.0000000), wk =   0.0014793
        k(  348) = (   0.1665896  -0.0192148   0.0000000), wk =   0.0014793
        k(  349) = (   0.1776956  -0.0384296   0.0000000), wk =   0.0014793
        k(  350) = (   0.1888015  -0.0576443   0.0000000), wk =   0.0014793
        k(  351) = (   0.1999075  -0.0768591   0.0000000), wk =   0.0014793
        k(  352) = (   0.2110135  -0.0960739   0.0000000), wk =   0.0014793
        k(  353) = (   0.2221195  -0.1152887   0.0000000), wk =   0.0014793
        k(  354) = (   0.2332254  -0.1345034   0.0000000), wk =   0.0014793
        k(  355) = (   0.2443314  -0.1537182   0.0000000), wk =   0.0014793
        k(  356) = (   0.2554374  -0.1729330   0.0000000), wk =   0.0014793
        k(  357) = (   0.2665433  -0.1921478   0.0000000), wk =   0.0014793
        k(  358) = (   0.2776493  -0.2113625   0.0000000), wk =   0.0014793
        k(  359) = (   0.2887553  -0.2305773   0.0000000), wk =   0.0014793
        k(  360) = (   0.2998613  -0.2497921   0.0000000), wk =   0.0014793
        k(  361) = (   0.3109672  -0.2690069   0.0000000), wk =   0.0014793
        k(  362) = (   0.3220732  -0.2882216   0.0000000), wk =   0.0014793
        k(  363) = (   0.3331792  -0.3074364   0.0000000), wk =   0.0014793
        k(  364) = (   0.3442852  -0.3266512   0.0000000), wk =   0.0014793
        k(  365) = (   0.3553911  -0.3458660   0.0000000), wk =   0.0014793
        k(  366) = (  -0.2110135   0.6340876   0.0000000), wk =   0.0014793
        k(  367) = (  -0.1999075   0.6148728   0.0000000), wk =   0.0014793
        k(  368) = (  -0.1888015   0.5956581   0.0000000), wk =   0.0014793
        k(  369) = (  -0.1776956   0.5764433   0.0000000), wk =   0.0014793
        k(  370) = (  -0.1665896   0.5572285   0.0000000), wk =   0.0014793
        k(  371) = (  -0.1554836   0.5380137   0.0000000), wk =   0.0014793
        k(  372) = (  -0.1443776   0.5187990   0.0000000), wk =   0.0014793
        k(  373) = (  -0.1332717   0.4995842   0.0000000), wk =   0.0014793
        k(  374) = (  -0.1221657   0.4803694   0.0000000), wk =   0.0014793
        k(  375) = (  -0.1110597   0.4611546   0.0000000), wk =   0.0014793
        k(  376) = (  -0.0999538   0.4419399   0.0000000), wk =   0.0014793
        k(  377) = (  -0.0888478   0.4227251   0.0000000), wk =   0.0014793
        k(  378) = (  -0.0777418   0.4035103   0.0000000), wk =   0.0014793
        k(  379) = (  -0.0666358   0.3842955   0.0000000), wk =   0.0014793
        k(  380) = (  -0.0555299   0.3650807   0.0000000), wk =   0.0014793
        k(  381) = (  -0.0444239   0.3458660   0.0000000), wk =   0.0014793
        k(  382) = (  -0.0333179   0.3266512   0.0000000), wk =   0.0014793
        k(  383) = (  -0.0222119   0.3074364   0.0000000), wk =   0.0014793
        k(  384) = (  -0.0111060   0.2882216   0.0000000), wk =   0.0014793
        k(  385) = (   0.0000000   0.2690069   0.0000000), wk =   0.0014793
        k(  386) = (   0.0111060   0.2497921   0.0000000), wk =   0.0014793
        k(  387) = (   0.0222119   0.2305773   0.0000000), wk =   0.0014793
        k(  388) = (   0.0333179   0.2113625   0.0000000), wk =   0.0014793
        k(  389) = (   0.0444239   0.1921478   0.0000000), wk =   0.0014793
        k(  390) = (   0.0555299   0.1729330   0.0000000), wk =   0.0014793
        k(  391) = (   0.0666358   0.1537182   0.0000000), wk =   0.0014793
        k(  392) = (   0.0888478   0.1537182   0.0000000), wk =   0.0014793
        k(  393) = (   0.0999538   0.1345034   0.0000000), wk =   0.0014793
        k(  394) = (   0.1110597   0.1152887   0.0000000), wk =   0.0014793
        k(  395) = (   0.1221657   0.0960739   0.0000000), wk =   0.0014793
        k(  396) = (   0.1332717   0.0768591   0.0000000), wk =   0.0014793
        k(  397) = (   0.1443776   0.0576443   0.0000000), wk =   0.0014793
        k(  398) = (   0.1554836   0.0384296   0.0000000), wk =   0.0014793
        k(  399) = (   0.1665896   0.0192148   0.0000000), wk =   0.0014793
        k(  400) = (   0.1776956   0.0000000   0.0000000), wk =   0.0014793
        k(  401) = (   0.1888015  -0.0192148   0.0000000), wk =   0.0014793
        k(  402) = (   0.1999075  -0.0384296   0.0000000), wk =   0.0014793
        k(  403) = (   0.2110135  -0.0576443   0.0000000), wk =   0.0014793
        k(  404) = (   0.2221195  -0.0768591   0.0000000), wk =   0.0014793
        k(  405) = (   0.2332254  -0.0960739   0.0000000), wk =   0.0014793
        k(  406) = (   0.2443314  -0.1152887   0.0000000), wk =   0.0014793
        k(  407) = (   0.2554374  -0.1345034   0.0000000), wk =   0.0014793
        k(  408) = (   0.2665433  -0.1537182   0.0000000), wk =   0.0014793
        k(  409) = (   0.2776493  -0.1729330   0.0000000), wk =   0.0014793
        k(  410) = (   0.2887553  -0.1921478   0.0000000), wk =   0.0014793
        k(  411) = (   0.2998613  -0.2113625   0.0000000), wk =   0.0014793
        k(  412) = (   0.3109672  -0.2305773   0.0000000), wk =   0.0014793
        k(  413) = (   0.3220732  -0.2497921   0.0000000), wk =   0.0014793
        k(  414) = (   0.3331792  -0.2690069   0.0000000), wk =   0.0014793
        k(  415) = (   0.3442852  -0.2882216   0.0000000), wk =   0.0014793
        k(  416) = (   0.3553911  -0.3074364   0.0000000), wk =   0.0014793
        k(  417) = (   0.3664971  -0.3266512   0.0000000), wk =   0.0014793
        k(  418) = (  -0.1999075   0.6533024   0.0000000), wk =   0.0014793
        k(  419) = (  -0.1888015   0.6340876   0.0000000), wk =   0.0014793
        k(  420) = (  -0.1776956   0.6148728   0.0000000), wk =   0.0014793
        k(  421) = (  -0.1665896   0.5956581   0.0000000), wk =   0.0014793
        k(  422) = (  -0.1554836   0.5764433   0.0000000), wk =   0.0014793
        k(  423) = (  -0.1443776   0.5572285   0.0000000), wk =   0.0014793
        k(  424) = (  -0.1332717   0.5380137   0.0000000), wk =   0.0014793
        k(  425) = (  -0.1221657   0.5187990   0.0000000), wk =   0.0014793
        k(  426) = (  -0.1110597   0.4995842   0.0000000), wk =   0.0014793
        k(  427) = (  -0.0999538   0.4803694   0.0000000), wk =   0.0014793
        k(  428) = (  -0.0888478   0.4611546   0.0000000), wk =   0.0014793
        k(  429) = (  -0.0777418   0.4419399   0.0000000), wk =   0.0014793
        k(  430) = (  -0.0666358   0.4227251   0.0000000), wk =   0.0014793
        k(  431) = (  -0.0555299   0.4035103   0.0000000), wk =   0.0014793
        k(  432) = (  -0.0444239   0.3842955   0.0000000), wk =   0.0014793
        k(  433) = (  -0.0333179   0.3650807   0.0000000), wk =   0.0014793
        k(  434) = (  -0.0222119   0.3458660   0.0000000), wk =   0.0014793
        k(  435) = (  -0.0111060   0.3266512   0.0000000), wk =   0.0014793
        k(  436) = (   0.0000000   0.3074364   0.0000000), wk =   0.0014793
        k(  437) = (   0.0111060   0.2882216   0.0000000), wk =   0.0014793
        k(  438) = (   0.0222119   0.2690069   0.0000000), wk =   0.0014793
        k(  439) = (   0.0333179   0.2497921   0.0000000), wk =   0.0014793
        k(  440) = (   0.0444239   0.2305773   0.0000000), wk =   0.0014793
        k(  441) = (   0.0555299   0.2113625   0.0000000), wk =   0.0014793
        k(  442) = (   0.0666358   0.1921478   0.0000000), wk =   0.0014793
        k(  443) = (   0.0777418   0.1729330   0.0000000), wk =   0.0014793
        k(  444) = (   0.0999538   0.1729330   0.0000000), wk =   0.0014793
        k(  445) = (   0.1110597   0.1537182   0.0000000), wk =   0.0014793
        k(  446) = (   0.1221657   0.1345034   0.0000000), wk =   0.0014793
        k(  447) = (   0.1332717   0.1152887   0.0000000), wk =   0.0014793
        k(  448) = (   0.1443776   0.0960739   0.0000000), wk =   0.0014793
        k(  449) = (   0.1554836   0.0768591   0.0000000), wk =   0.0014793
        k(  450) = (   0.1665896   0.0576443   0.0000000), wk =   0.0014793
        k(  451) = (   0.1776956   0.0384296   0.0000000), wk =   0.0014793
        k(  452) = (   0.1888015   0.0192148   0.0000000), wk =   0.0014793
        k(  453) = (   0.1999075   0.0000000   0.0000000), wk =   0.0014793
        k(  454) = (   0.2110135  -0.0192148   0.0000000), wk =   0.0014793
        k(  455) = (   0.2221195  -0.0384296   0.0000000), wk =   0.0014793
        k(  456) = (   0.2332254  -0.0576443   0.0000000), wk =   0.0014793
        k(  457) = (   0.2443314  -0.0768591   0.0000000), wk =   0.0014793
        k(  458) = (   0.2554374  -0.0960739   0.0000000), wk =   0.0014793
        k(  459) = (   0.2665433  -0.1152887   0.0000000), wk =   0.0014793
        k(  460) = (   0.2776493  -0.1345034   0.0000000), wk =   0.0014793
        k(  461) = (   0.2887553  -0.1537182   0.0000000), wk =   0.0014793
        k(  462) = (   0.2998613  -0.1729330   0.0000000), wk =   0.0014793
        k(  463) = (   0.3109672  -0.1921478   0.0000000), wk =   0.0014793
        k(  464) = (   0.3220732  -0.2113625   0.0000000), wk =   0.0014793
        k(  465) = (   0.3331792  -0.2305773   0.0000000), wk =   0.0014793
        k(  466) = (   0.3442852  -0.2497921   0.0000000), wk =   0.0014793
        k(  467) = (   0.3553911  -0.2690069   0.0000000), wk =   0.0014793
        k(  468) = (   0.3664971  -0.2882216   0.0000000), wk =   0.0014793
        k(  469) = (   0.3776031  -0.3074364   0.0000000), wk =   0.0014793
        k(  470) = (  -0.1888015   0.6725172   0.0000000), wk =   0.0014793
        k(  471) = (  -0.1776956   0.6533024   0.0000000), wk =   0.0014793
        k(  472) = (  -0.1665896   0.6340876   0.0000000), wk =   0.0014793
        k(  473) = (  -0.1554836   0.6148728   0.0000000), wk =   0.0014793
        k(  474) = (  -0.1443776   0.5956581   0.0000000), wk =   0.0014793
        k(  475) = (  -0.1332717   0.5764433   0.0000000), wk =   0.0014793
        k(  476) = (  -0.1221657   0.5572285   0.0000000), wk =   0.0014793
        k(  477) = (  -0.1110597   0.5380137   0.0000000), wk =   0.0014793
        k(  478) = (  -0.0999538   0.5187990   0.0000000), wk =   0.0014793
        k(  479) = (  -0.0888478   0.4995842   0.0000000), wk =   0.0014793
        k(  480) = (  -0.0777418   0.4803694   0.0000000), wk =   0.0014793
        k(  481) = (  -0.0666358   0.4611546   0.0000000), wk =   0.0014793
        k(  482) = (  -0.0555299   0.4419399   0.0000000), wk =   0.0014793
        k(  483) = (  -0.0444239   0.4227251   0.0000000), wk =   0.0014793
        k(  484) = (  -0.0333179   0.4035103   0.0000000), wk =   0.0014793
        k(  485) = (  -0.0222119   0.3842955   0.0000000), wk =   0.0014793
        k(  486) = (  -0.0111060   0.3650807   0.0000000), wk =   0.0014793
        k(  487) = (  -0.0000000   0.3458660   0.0000000), wk =   0.0014793
        k(  488) = (   0.0111060   0.3266512   0.0000000), wk =   0.0014793
        k(  489) = (   0.0222119   0.3074364   0.0000000), wk =   0.0014793
        k(  490) = (   0.0333179   0.2882216   0.0000000), wk =   0.0014793
        k(  491) = (   0.0444239   0.2690069   0.0000000), wk =   0.0014793
        k(  492) = (   0.0555299   0.2497921   0.0000000), wk =   0.0014793
        k(  493) = (   0.0666358   0.2305773   0.0000000), wk =   0.0014793
        k(  494) = (   0.0777418   0.2113625   0.0000000), wk =   0.0014793
        k(  495) = (   0.0888478   0.1921478   0.0000000), wk =   0.0014793
        k(  496) = (   0.1110597   0.1921478   0.0000000), wk =   0.0014793
        k(  497) = (   0.1221657   0.1729330   0.0000000), wk =   0.0014793
        k(  498) = (   0.1332717   0.1537182   0.0000000), wk =   0.0014793
        k(  499) = (   0.1443776   0.1345034   0.0000000), wk =   0.0014793
        k(  500) = (   0.1554836   0.1152887   0.0000000), wk =   0.0014793
        k(  501) = (   0.1665896   0.0960739   0.0000000), wk =   0.0014793
        k(  502) = (   0.1776956   0.0768591   0.0000000), wk =   0.0014793
        k(  503) = (   0.1888015   0.0576443   0.0000000), wk =   0.0014793
        k(  504) = (   0.1999075   0.0384296   0.0000000), wk =   0.0014793
        k(  505) = (   0.2110135   0.0192148   0.0000000), wk =   0.0014793
        k(  506) = (   0.2221195   0.0000000   0.0000000), wk =   0.0014793
        k(  507) = (   0.2332254  -0.0192148   0.0000000), wk =   0.0014793
        k(  508) = (   0.2443314  -0.0384296   0.0000000), wk =   0.0014793
        k(  509) = (   0.2554374  -0.0576443   0.0000000), wk =   0.0014793
        k(  510) = (   0.2665433  -0.0768591   0.0000000), wk =   0.0014793
        k(  511) = (   0.2776493  -0.0960739   0.0000000), wk =   0.0014793
        k(  512) = (   0.2887553  -0.1152887   0.0000000), wk =   0.0014793
        k(  513) = (   0.2998613  -0.1345034   0.0000000), wk =   0.0014793
        k(  514) = (   0.3109672  -0.1537182   0.0000000), wk =   0.0014793
        k(  515) = (   0.3220732  -0.1729330   0.0000000), wk =   0.0014793
        k(  516) = (   0.3331792  -0.1921478   0.0000000), wk =   0.0014793
        k(  517) = (   0.3442852  -0.2113625   0.0000000), wk =   0.0014793
        k(  518) = (   0.3553911  -0.2305773   0.0000000), wk =   0.0014793
        k(  519) = (   0.3664971  -0.2497921   0.0000000), wk =   0.0014793
        k(  520) = (   0.3776031  -0.2690069   0.0000000), wk =   0.0014793
        k(  521) = (   0.3887090  -0.2882216   0.0000000), wk =   0.0014793
        k(  522) = (  -0.1776956   0.6917319   0.0000000), wk =   0.0014793
        k(  523) = (  -0.1665896   0.6725172   0.0000000), wk =   0.0014793
        k(  524) = (  -0.1554836   0.6533024   0.0000000), wk =   0.0014793
        k(  525) = (  -0.1443776   0.6340876   0.0000000), wk =   0.0014793
        k(  526) = (  -0.1332717   0.6148728   0.0000000), wk =   0.0014793
        k(  527) = (  -0.1221657   0.5956581   0.0000000), wk =   0.0014793
        k(  528) = (  -0.1110597   0.5764433   0.0000000), wk =   0.0014793
        k(  529) = (  -0.0999538   0.5572285   0.0000000), wk =   0.0014793
        k(  530) = (  -0.0888478   0.5380137   0.0000000), wk =   0.0014793
        k(  531) = (  -0.0777418   0.5187990   0.0000000), wk =   0.0014793
        k(  532) = (  -0.0666358   0.4995842   0.0000000), wk =   0.0014793
        k(  533) = (  -0.0555299   0.4803694   0.0000000), wk =   0.0014793
        k(  534) = (  -0.0444239   0.4611546   0.0000000), wk =   0.0014793
        k(  535) = (  -0.0333179   0.4419399   0.0000000), wk =   0.0014793
        k(  536) = (  -0.0222119   0.4227251   0.0000000), wk =   0.0014793
        k(  537) = (  -0.0111060   0.4035103   0.0000000), wk =   0.0014793
        k(  538) = (   0.0000000   0.3842955   0.0000000), wk =   0.0014793
        k(  539) = (   0.0111060   0.3650807   0.0000000), wk =   0.0014793
        k(  540) = (   0.0222119   0.3458660   0.0000000), wk =   0.0014793
        k(  541) = (   0.0333179   0.3266512   0.0000000), wk =   0.0014793
        k(  542) = (   0.0444239   0.3074364   0.0000000), wk =   0.0014793
        k(  543) = (   0.0555299   0.2882216   0.0000000), wk =   0.0014793
        k(  544) = (   0.0666358   0.2690069   0.0000000), wk =   0.0014793
        k(  545) = (   0.0777418   0.2497921   0.0000000), wk =   0.0014793
        k(  546) = (   0.0888478   0.2305773   0.0000000), wk =   0.0014793
        k(  547) = (   0.0999538   0.2113625   0.0000000), wk =   0.0014793
        k(  548) = (   0.1221657   0.2113625   0.0000000), wk =   0.0014793
        k(  549) = (   0.1332717   0.1921478   0.0000000), wk =   0.0014793
        k(  550) = (   0.1443776   0.1729330   0.0000000), wk =   0.0014793
        k(  551) = (   0.1554836   0.1537182   0.0000000), wk =   0.0014793
        k(  552) = (   0.1665896   0.1345034   0.0000000), wk =   0.0014793
        k(  553) = (   0.1776956   0.1152887   0.0000000), wk =   0.0014793
        k(  554) = (   0.1888015   0.0960739   0.0000000), wk =   0.0014793
        k(  555) = (   0.1999075   0.0768591   0.0000000), wk =   0.0014793
        k(  556) = (   0.2110135   0.0576443   0.0000000), wk =   0.0014793
        k(  557) = (   0.2221195   0.0384296   0.0000000), wk =   0.0014793
        k(  558) = (   0.2332254   0.0192148   0.0000000), wk =   0.0014793
        k(  559) = (   0.2443314   0.0000000   0.0000000), wk =   0.0014793
        k(  560) = (   0.2554374  -0.0192148   0.0000000), wk =   0.0014793
        k(  561) = (   0.2665433  -0.0384296   0.0000000), wk =   0.0014793
        k(  562) = (   0.2776493  -0.0576443   0.0000000), wk =   0.0014793
        k(  563) = (   0.2887553  -0.0768591   0.0000000), wk =   0.0014793
        k(  564) = (   0.2998613  -0.0960739   0.0000000), wk =   0.0014793
        k(  565) = (   0.3109672  -0.1152887   0.0000000), wk =   0.0014793
        k(  566) = (   0.3220732  -0.1345034   0.0000000), wk =   0.0014793
        k(  567) = (   0.3331792  -0.1537182   0.0000000), wk =   0.0014793
        k(  568) = (   0.3442852  -0.1729330   0.0000000), wk =   0.0014793
        k(  569) = (   0.3553911  -0.1921478   0.0000000), wk =   0.0014793
        k(  570) = (   0.3664971  -0.2113625   0.0000000), wk =   0.0014793
        k(  571) = (   0.3776031  -0.2305773   0.0000000), wk =   0.0014793
        k(  572) = (   0.3887090  -0.2497921   0.0000000), wk =   0.0014793
        k(  573) = (   0.3998150  -0.2690069   0.0000000), wk =   0.0014793
        k(  574) = (  -0.1665896   0.7109467   0.0000000), wk =   0.0014793
        k(  575) = (  -0.1554836   0.6917319   0.0000000), wk =   0.0014793
        k(  576) = (  -0.1443776   0.6725172   0.0000000), wk =   0.0014793
        k(  577) = (  -0.1332717   0.6533024   0.0000000), wk =   0.0014793
        k(  578) = (  -0.1221657   0.6340876   0.0000000), wk =   0.0014793
        k(  579) = (  -0.1110597   0.6148728   0.0000000), wk =   0.0014793
        k(  580) = (  -0.0999538   0.5956581   0.0000000), wk =   0.0014793
        k(  581) = (  -0.0888478   0.5764433   0.0000000), wk =   0.0014793
        k(  582) = (  -0.0777418   0.5572285   0.0000000), wk =   0.0014793
        k(  583) = (  -0.0666358   0.5380137   0.0000000), wk =   0.0014793
        k(  584) = (  -0.0555299   0.5187990   0.0000000), wk =   0.0014793
        k(  585) = (  -0.0444239   0.4995842   0.0000000), wk =   0.0014793
        k(  586) = (  -0.0333179   0.4803694   0.0000000), wk =   0.0014793
        k(  587) = (  -0.0222119   0.4611546   0.0000000), wk =   0.0014793
        k(  588) = (  -0.0111060   0.4419399   0.0000000), wk =   0.0014793
        k(  589) = (   0.0000000   0.4227251   0.0000000), wk =   0.0014793
        k(  590) = (   0.0111060   0.4035103   0.0000000), wk =   0.0014793
        k(  591) = (   0.0222119   0.3842955   0.0000000), wk =   0.0014793
        k(  592) = (   0.0333179   0.3650807   0.0000000), wk =   0.0014793
        k(  593) = (   0.0444239   0.3458660   0.0000000), wk =   0.0014793
        k(  594) = (   0.0555299   0.3266512   0.0000000), wk =   0.0014793
        k(  595) = (   0.0666358   0.3074364   0.0000000), wk =   0.0014793
        k(  596) = (   0.0777418   0.2882216   0.0000000), wk =   0.0014793
        k(  597) = (   0.0888478   0.2690069   0.0000000), wk =   0.0014793
        k(  598) = (   0.0999538   0.2497921   0.0000000), wk =   0.0014793
        k(  599) = (   0.1110597   0.2305773   0.0000000), wk =   0.0014793
        k(  600) = (   0.1332717   0.2305773   0.0000000), wk =   0.0014793
        k(  601) = (   0.1443776   0.2113625   0.0000000), wk =   0.0014793
        k(  602) = (   0.1554836   0.1921478   0.0000000), wk =   0.0014793
        k(  603) = (   0.1665896   0.1729330   0.0000000), wk =   0.0014793
        k(  604) = (   0.1776956   0.1537182   0.0000000), wk =   0.0014793
        k(  605) = (   0.1888015   0.1345034   0.0000000), wk =   0.0014793
        k(  606) = (   0.1999075   0.1152887   0.0000000), wk =   0.0014793
        k(  607) = (   0.2110135   0.0960739   0.0000000), wk =   0.0014793
        k(  608) = (   0.2221195   0.0768591   0.0000000), wk =   0.0014793
        k(  609) = (   0.2332254   0.0576443   0.0000000), wk =   0.0014793
        k(  610) = (   0.2443314   0.0384296   0.0000000), wk =   0.0014793
        k(  611) = (   0.2554374   0.0192148   0.0000000), wk =   0.0014793
        k(  612) = (   0.2665433   0.0000000   0.0000000), wk =   0.0014793
        k(  613) = (   0.2776493  -0.0192148   0.0000000), wk =   0.0014793
        k(  614) = (   0.2887553  -0.0384296   0.0000000), wk =   0.0014793
        k(  615) = (   0.2998613  -0.0576443   0.0000000), wk =   0.0014793
        k(  616) = (   0.3109672  -0.0768591   0.0000000), wk =   0.0014793
        k(  617) = (   0.3220732  -0.0960739   0.0000000), wk =   0.0014793
        k(  618) = (   0.3331792  -0.1152887   0.0000000), wk =   0.0014793
        k(  619) = (   0.3442852  -0.1345034   0.0000000), wk =   0.0014793
        k(  620) = (   0.3553911  -0.1537182   0.0000000), wk =   0.0014793
        k(  621) = (   0.3664971  -0.1729330   0.0000000), wk =   0.0014793
        k(  622) = (   0.3776031  -0.1921478   0.0000000), wk =   0.0014793
        k(  623) = (   0.3887090  -0.2113625   0.0000000), wk =   0.0014793
        k(  624) = (   0.3998150  -0.2305773   0.0000000), wk =   0.0014793
        k(  625) = (   0.4109210  -0.2497921   0.0000000), wk =   0.0014793
        k(  626) = (  -0.1554836   0.7301615   0.0000000), wk =   0.0014793
        k(  627) = (  -0.1443776   0.7109467   0.0000000), wk =   0.0014793
        k(  628) = (  -0.1332717   0.6917319   0.0000000), wk =   0.0014793
        k(  629) = (  -0.1221657   0.6725172   0.0000000), wk =   0.0014793
        k(  630) = (  -0.1110597   0.6533024   0.0000000), wk =   0.0014793
        k(  631) = (  -0.0999538   0.6340876   0.0000000), wk =   0.0014793
        k(  632) = (  -0.0888478   0.6148728   0.0000000), wk =   0.0014793
        k(  633) = (  -0.0777418   0.5956581   0.0000000), wk =   0.0014793
        k(  634) = (  -0.0666358   0.5764433   0.0000000), wk =   0.0014793
        k(  635) = (  -0.0555299   0.5572285   0.0000000), wk =   0.0014793
        k(  636) = (  -0.0444239   0.5380137   0.0000000), wk =   0.0014793
        k(  637) = (  -0.0333179   0.5187990   0.0000000), wk =   0.0014793
        k(  638) = (  -0.0222119   0.4995842   0.0000000), wk =   0.0014793
        k(  639) = (  -0.0111060   0.4803694   0.0000000), wk =   0.0014793
        k(  640) = (   0.0000000   0.4611546   0.0000000), wk =   0.0014793
        k(  641) = (   0.0111060   0.4419399   0.0000000), wk =   0.0014793
        k(  642) = (   0.0222119   0.4227251   0.0000000), wk =   0.0014793
        k(  643) = (   0.0333179   0.4035103   0.0000000), wk =   0.0014793
        k(  644) = (   0.0444239   0.3842955   0.0000000), wk =   0.0014793
        k(  645) = (   0.0555299   0.3650807   0.0000000), wk =   0.0014793
        k(  646) = (   0.0666358   0.3458660   0.0000000), wk =   0.0014793
        k(  647) = (   0.0777418   0.3266512   0.0000000), wk =   0.0014793
        k(  648) = (   0.0888478   0.3074364   0.0000000), wk =   0.0014793
        k(  649) = (   0.0999538   0.2882216   0.0000000), wk =   0.0014793
        k(  650) = (   0.1110597   0.2690069   0.0000000), wk =   0.0014793
        k(  651) = (   0.1221657   0.2497921   0.0000000), wk =   0.0014793
        k(  652) = (   0.1443776   0.2497921   0.0000000), wk =   0.0014793
        k(  653) = (   0.1554836   0.2305773   0.0000000), wk =   0.0014793
        k(  654) = (   0.1665896   0.2113625   0.0000000), wk =   0.0014793
        k(  655) = (   0.1776956   0.1921478   0.0000000), wk =   0.0014793
        k(  656) = (   0.1888015   0.1729330   0.0000000), wk =   0.0014793
        k(  657) = (   0.1999075   0.1537182   0.0000000), wk =   0.0014793
        k(  658) = (   0.2110135   0.1345034   0.0000000), wk =   0.0014793
        k(  659) = (   0.2221195   0.1152887   0.0000000), wk =   0.0014793
        k(  660) = (   0.2332254   0.0960739   0.0000000), wk =   0.0014793
        k(  661) = (   0.2443314   0.0768591   0.0000000), wk =   0.0014793
        k(  662) = (   0.2554374   0.0576443   0.0000000), wk =   0.0014793
        k(  663) = (   0.2665433   0.0384296   0.0000000), wk =   0.0014793
        k(  664) = (   0.2776493   0.0192148   0.0000000), wk =   0.0014793
        k(  665) = (   0.2887553   0.0000000   0.0000000), wk =   0.0014793
        k(  666) = (   0.2998613  -0.0192148   0.0000000), wk =   0.0014793
        k(  667) = (   0.3109672  -0.0384296   0.0000000), wk =   0.0014793
        k(  668) = (   0.3220732  -0.0576443   0.0000000), wk =   0.0014793
        k(  669) = (   0.3331792  -0.0768591   0.0000000), wk =   0.0014793
        k(  670) = (   0.3442852  -0.0960739   0.0000000), wk =   0.0014793
        k(  671) = (   0.3553911  -0.1152887   0.0000000), wk =   0.0014793
        k(  672) = (   0.3664971  -0.1345034   0.0000000), wk =   0.0014793
        k(  673) = (   0.3776031  -0.1537182   0.0000000), wk =   0.0014793
        k(  674) = (   0.3887090  -0.1729330   0.0000000), wk =   0.0014793
        k(  675) = (   0.3998150  -0.1921478   0.0000000), wk =   0.0014793
        k(  676) = (   0.4109210  -0.2113625   0.0000000), wk =   0.0014793
        k(  677) = (   0.4220270  -0.2305773   0.0000000), wk =   0.0014793
        k(  678) = (  -0.1443776   0.7493763   0.0000000), wk =   0.0014793
        k(  679) = (  -0.1332717   0.7301615   0.0000000), wk =   0.0014793
        k(  680) = (  -0.1221657   0.7109467   0.0000000), wk =   0.0014793
        k(  681) = (  -0.1110597   0.6917319   0.0000000), wk =   0.0014793
        k(  682) = (  -0.0999538   0.6725172   0.0000000), wk =   0.0014793
        k(  683) = (  -0.0888478   0.6533024   0.0000000), wk =   0.0014793
        k(  684) = (  -0.0777418   0.6340876   0.0000000), wk =   0.0014793
        k(  685) = (  -0.0666358   0.6148728   0.0000000), wk =   0.0014793
        k(  686) = (  -0.0555299   0.5956581   0.0000000), wk =   0.0014793
        k(  687) = (  -0.0444239   0.5764433   0.0000000), wk =   0.0014793
        k(  688) = (  -0.0333179   0.5572285   0.0000000), wk =   0.0014793
        k(  689) = (  -0.0222119   0.5380137   0.0000000), wk =   0.0014793
        k(  690) = (  -0.0111060   0.5187990   0.0000000), wk =   0.0014793
        k(  691) = (   0.0000000   0.4995842   0.0000000), wk =   0.0014793
        k(  692) = (   0.0111060   0.4803694   0.0000000), wk =   0.0014793
        k(  693) = (   0.0222119   0.4611546   0.0000000), wk =   0.0014793
        k(  694) = (   0.0333179   0.4419399   0.0000000), wk =   0.0014793
        k(  695) = (   0.0444239   0.4227251   0.0000000), wk =   0.0014793
        k(  696) = (   0.0555299   0.4035103   0.0000000), wk =   0.0014793
        k(  697) = (   0.0666358   0.3842955   0.0000000), wk =   0.0014793
        k(  698) = (   0.0777418   0.3650807   0.0000000), wk =   0.0014793
        k(  699) = (   0.0888478   0.3458660   0.0000000), wk =   0.0014793
        k(  700) = (   0.0999538   0.3266512   0.0000000), wk =   0.0014793
        k(  701) = (   0.1110597   0.3074364   0.0000000), wk =   0.0014793
        k(  702) = (   0.1221657   0.2882216   0.0000000), wk =   0.0014793
        k(  703) = (   0.1332717   0.2690069   0.0000000), wk =   0.0014793
        k(  704) = (   0.1554836   0.2690069   0.0000000), wk =   0.0014793
        k(  705) = (   0.1665896   0.2497921   0.0000000), wk =   0.0014793
        k(  706) = (   0.1776956   0.2305773   0.0000000), wk =   0.0014793
        k(  707) = (   0.1888015   0.2113625   0.0000000), wk =   0.0014793
        k(  708) = (   0.1999075   0.1921478   0.0000000), wk =   0.0014793
        k(  709) = (   0.2110135   0.1729330   0.0000000), wk =   0.0014793
        k(  710) = (   0.2221195   0.1537182   0.0000000), wk =   0.0014793
        k(  711) = (   0.2332254   0.1345034   0.0000000), wk =   0.0014793
        k(  712) = (   0.2443314   0.1152887   0.0000000), wk =   0.0014793
        k(  713) = (   0.2554374   0.0960739   0.0000000), wk =   0.0014793
        k(  714) = (   0.2665433   0.0768591   0.0000000), wk =   0.0014793
        k(  715) = (   0.2776493   0.0576443   0.0000000), wk =   0.0014793
        k(  716) = (   0.2887553   0.0384296   0.0000000), wk =   0.0014793
        k(  717) = (   0.2998613   0.0192148   0.0000000), wk =   0.0014793
        k(  718) = (   0.3109672   0.0000000   0.0000000), wk =   0.0014793
        k(  719) = (   0.3220732  -0.0192148   0.0000000), wk =   0.0014793
        k(  720) = (   0.3331792  -0.0384296   0.0000000), wk =   0.0014793
        k(  721) = (   0.3442852  -0.0576443   0.0000000), wk =   0.0014793
        k(  722) = (   0.3553911  -0.0768591   0.0000000), wk =   0.0014793
        k(  723) = (   0.3664971  -0.0960739   0.0000000), wk =   0.0014793
        k(  724) = (   0.3776031  -0.1152887   0.0000000), wk =   0.0014793
        k(  725) = (   0.3887090  -0.1345034   0.0000000), wk =   0.0014793
        k(  726) = (   0.3998150  -0.1537182   0.0000000), wk =   0.0014793
        k(  727) = (   0.4109210  -0.1729330   0.0000000), wk =   0.0014793
        k(  728) = (   0.4220270  -0.1921478   0.0000000), wk =   0.0014793
        k(  729) = (   0.4331329  -0.2113625   0.0000000), wk =   0.0014793
        k(  730) = (  -0.1332717   0.7685911   0.0000000), wk =   0.0014793
        k(  731) = (  -0.1221657   0.7493763   0.0000000), wk =   0.0014793
        k(  732) = (  -0.1110597   0.7301615   0.0000000), wk =   0.0014793
        k(  733) = (  -0.0999538   0.7109467   0.0000000), wk =   0.0014793
        k(  734) = (  -0.0888478   0.6917319   0.0000000), wk =   0.0014793
        k(  735) = (  -0.0777418   0.6725172   0.0000000), wk =   0.0014793
        k(  736) = (  -0.0666358   0.6533024   0.0000000), wk =   0.0014793
        k(  737) = (  -0.0555299   0.6340876   0.0000000), wk =   0.0014793
        k(  738) = (  -0.0444239   0.6148728   0.0000000), wk =   0.0014793
        k(  739) = (  -0.0333179   0.5956581   0.0000000), wk =   0.0014793
        k(  740) = (  -0.0222119   0.5764433   0.0000000), wk =   0.0014793
        k(  741) = (  -0.0111060   0.5572285   0.0000000), wk =   0.0014793
        k(  742) = (   0.0000000   0.5380137   0.0000000), wk =   0.0014793
        k(  743) = (   0.0111060   0.5187990   0.0000000), wk =   0.0014793
        k(  744) = (   0.0222119   0.4995842   0.0000000), wk =   0.0014793
        k(  745) = (   0.0333179   0.4803694   0.0000000), wk =   0.0014793
        k(  746) = (   0.0444239   0.4611546   0.0000000), wk =   0.0014793
        k(  747) = (   0.0555299   0.4419399   0.0000000), wk =   0.0014793
        k(  748) = (   0.0666358   0.4227251   0.0000000), wk =   0.0014793
        k(  749) = (   0.0777418   0.4035103   0.0000000), wk =   0.0014793
        k(  750) = (   0.0888478   0.3842955   0.0000000), wk =   0.0014793
        k(  751) = (   0.0999538   0.3650807   0.0000000), wk =   0.0014793
        k(  752) = (   0.1110597   0.3458660   0.0000000), wk =   0.0014793
        k(  753) = (   0.1221657   0.3266512   0.0000000), wk =   0.0014793
        k(  754) = (   0.1332717   0.3074364   0.0000000), wk =   0.0014793
        k(  755) = (   0.1443776   0.2882216   0.0000000), wk =   0.0014793
        k(  756) = (   0.1665896   0.2882216   0.0000000), wk =   0.0014793
        k(  757) = (   0.1776956   0.2690069   0.0000000), wk =   0.0014793
        k(  758) = (   0.1888015   0.2497921   0.0000000), wk =   0.0014793
        k(  759) = (   0.1999075   0.2305773   0.0000000), wk =   0.0014793
        k(  760) = (   0.2110135   0.2113625   0.0000000), wk =   0.0014793
        k(  761) = (   0.2221195   0.1921478   0.0000000), wk =   0.0014793
        k(  762) = (   0.2332254   0.1729330   0.0000000), wk =   0.0014793
        k(  763) = (   0.2443314   0.1537182   0.0000000), wk =   0.0014793
        k(  764) = (   0.2554374   0.1345034   0.0000000), wk =   0.0014793
        k(  765) = (   0.2665433   0.1152887   0.0000000), wk =   0.0014793
        k(  766) = (   0.2776493   0.0960739   0.0000000), wk =   0.0014793
        k(  767) = (   0.2887553   0.0768591   0.0000000), wk =   0.0014793
        k(  768) = (   0.2998613   0.0576443   0.0000000), wk =   0.0014793
        k(  769) = (   0.3109672   0.0384296   0.0000000), wk =   0.0014793
        k(  770) = (   0.3220732   0.0192148   0.0000000), wk =   0.0014793
        k(  771) = (   0.3331792   0.0000000   0.0000000), wk =   0.0014793
        k(  772) = (   0.3442852  -0.0192148   0.0000000), wk =   0.0014793
        k(  773) = (   0.3553911  -0.0384296   0.0000000), wk =   0.0014793
        k(  774) = (   0.3664971  -0.0576443   0.0000000), wk =   0.0014793
        k(  775) = (   0.3776031  -0.0768591   0.0000000), wk =   0.0014793
        k(  776) = (   0.3887090  -0.0960739   0.0000000), wk =   0.0014793
        k(  777) = (   0.3998150  -0.1152887   0.0000000), wk =   0.0014793
        k(  778) = (   0.4109210  -0.1345034   0.0000000), wk =   0.0014793
        k(  779) = (   0.4220270  -0.1537182   0.0000000), wk =   0.0014793
        k(  780) = (   0.4331329  -0.1729330   0.0000000), wk =   0.0014793
        k(  781) = (   0.4442389  -0.1921478   0.0000000), wk =   0.0014793
        k(  782) = (  -0.1221657   0.7878058   0.0000000), wk =   0.0014793
        k(  783) = (  -0.1110597   0.7685911   0.0000000), wk =   0.0014793
        k(  784) = (  -0.0999538   0.7493763   0.0000000), wk =   0.0014793
        k(  785) = (  -0.0888478   0.7301615   0.0000000), wk =   0.0014793
        k(  786) = (  -0.0777418   0.7109467   0.0000000), wk =   0.0014793
        k(  787) = (  -0.0666358   0.6917319   0.0000000), wk =   0.0014793
        k(  788) = (  -0.0555299   0.6725172   0.0000000), wk =   0.0014793
        k(  789) = (  -0.0444239   0.6533024   0.0000000), wk =   0.0014793
        k(  790) = (  -0.0333179   0.6340876   0.0000000), wk =   0.0014793
        k(  791) = (  -0.0222119   0.6148728   0.0000000), wk =   0.0014793
        k(  792) = (  -0.0111060   0.5956581   0.0000000), wk =   0.0014793
        k(  793) = (   0.0000000   0.5764433   0.0000000), wk =   0.0014793
        k(  794) = (   0.0111060   0.5572285   0.0000000), wk =   0.0014793
        k(  795) = (   0.0222119   0.5380137   0.0000000), wk =   0.0014793
        k(  796) = (   0.0333179   0.5187990   0.0000000), wk =   0.0014793
        k(  797) = (   0.0444239   0.4995842   0.0000000), wk =   0.0014793
        k(  798) = (   0.0555299   0.4803694   0.0000000), wk =   0.0014793
        k(  799) = (   0.0666358   0.4611546   0.0000000), wk =   0.0014793
        k(  800) = (   0.0777418   0.4419399   0.0000000), wk =   0.0014793
        k(  801) = (   0.0888478   0.4227251   0.0000000), wk =   0.0014793
        k(  802) = (   0.0999538   0.4035103   0.0000000), wk =   0.0014793
        k(  803) = (   0.1110597   0.3842955   0.0000000), wk =   0.0014793
        k(  804) = (   0.1221657   0.3650807   0.0000000), wk =   0.0014793
        k(  805) = (   0.1332717   0.3458660   0.0000000), wk =   0.0014793
        k(  806) = (   0.1443776   0.3266512   0.0000000), wk =   0.0014793
        k(  807) = (   0.1554836   0.3074364   0.0000000), wk =   0.0014793
        k(  808) = (   0.1776956   0.3074364   0.0000000), wk =   0.0014793
        k(  809) = (   0.1888015   0.2882216   0.0000000), wk =   0.0014793
        k(  810) = (   0.1999075   0.2690069   0.0000000), wk =   0.0014793
        k(  811) = (   0.2110135   0.2497921   0.0000000), wk =   0.0014793
        k(  812) = (   0.2221195   0.2305773   0.0000000), wk =   0.0014793
        k(  813) = (   0.2332254   0.2113625   0.0000000), wk =   0.0014793
        k(  814) = (   0.2443314   0.1921478   0.0000000), wk =   0.0014793
        k(  815) = (   0.2554374   0.1729330   0.0000000), wk =   0.0014793
        k(  816) = (   0.2665433   0.1537182   0.0000000), wk =   0.0014793
        k(  817) = (   0.2776493   0.1345034   0.0000000), wk =   0.0014793
        k(  818) = (   0.2887553   0.1152887   0.0000000), wk =   0.0014793
        k(  819) = (   0.2998613   0.0960739   0.0000000), wk =   0.0014793
        k(  820) = (   0.3109672   0.0768591   0.0000000), wk =   0.0014793
        k(  821) = (   0.3220732   0.0576443   0.0000000), wk =   0.0014793
        k(  822) = (   0.3331792   0.0384296   0.0000000), wk =   0.0014793
        k(  823) = (   0.3442852   0.0192148   0.0000000), wk =   0.0014793
        k(  824) = (   0.3553911   0.0000000   0.0000000), wk =   0.0014793
        k(  825) = (   0.3664971  -0.0192148   0.0000000), wk =   0.0014793
        k(  826) = (   0.3776031  -0.0384296   0.0000000), wk =   0.0014793
        k(  827) = (   0.3887090  -0.0576443   0.0000000), wk =   0.0014793
        k(  828) = (   0.3998150  -0.0768591   0.0000000), wk =   0.0014793
        k(  829) = (   0.4109210  -0.0960739   0.0000000), wk =   0.0014793
        k(  830) = (   0.4220270  -0.1152887   0.0000000), wk =   0.0014793
        k(  831) = (   0.4331329  -0.1345034   0.0000000), wk =   0.0014793
        k(  832) = (   0.4442389  -0.1537182   0.0000000), wk =   0.0014793
        k(  833) = (   0.4553449  -0.1729330   0.0000000), wk =   0.0014793
        k(  834) = (  -0.1110597   0.8070206   0.0000000), wk =   0.0014793
        k(  835) = (  -0.0999538   0.7878058   0.0000000), wk =   0.0014793
        k(  836) = (  -0.0888478   0.7685911   0.0000000), wk =   0.0014793
        k(  837) = (  -0.0777418   0.7493763   0.0000000), wk =   0.0014793
        k(  838) = (  -0.0666358   0.7301615   0.0000000), wk =   0.0014793
        k(  839) = (  -0.0555299   0.7109467   0.0000000), wk =   0.0014793
        k(  840) = (  -0.0444239   0.6917319   0.0000000), wk =   0.0014793
        k(  841) = (  -0.0333179   0.6725172   0.0000000), wk =   0.0014793
        k(  842) = (  -0.0222119   0.6533024   0.0000000), wk =   0.0014793
        k(  843) = (  -0.0111060   0.6340876   0.0000000), wk =   0.0014793
        k(  844) = (   0.0000000   0.6148728   0.0000000), wk =   0.0014793
        k(  845) = (   0.0111060   0.5956581   0.0000000), wk =   0.0014793
        k(  846) = (   0.0222119   0.5764433   0.0000000), wk =   0.0014793
        k(  847) = (   0.0333179   0.5572285   0.0000000), wk =   0.0014793
        k(  848) = (   0.0444239   0.5380137   0.0000000), wk =   0.0014793
        k(  849) = (   0.0555299   0.5187990   0.0000000), wk =   0.0014793
        k(  850) = (   0.0666358   0.4995842   0.0000000), wk =   0.0014793
        k(  851) = (   0.0777418   0.4803694   0.0000000), wk =   0.0014793
        k(  852) = (   0.0888478   0.4611546   0.0000000), wk =   0.0014793
        k(  853) = (   0.0999538   0.4419399   0.0000000), wk =   0.0014793
        k(  854) = (   0.1110597   0.4227251   0.0000000), wk =   0.0014793
        k(  855) = (   0.1221657   0.4035103   0.0000000), wk =   0.0014793
        k(  856) = (   0.1332717   0.3842955   0.0000000), wk =   0.0014793
        k(  857) = (   0.1443776   0.3650807   0.0000000), wk =   0.0014793
        k(  858) = (   0.1554836   0.3458660   0.0000000), wk =   0.0014793
        k(  859) = (   0.1665896   0.3266512   0.0000000), wk =   0.0014793
        k(  860) = (   0.1888015   0.3266512   0.0000000), wk =   0.0014793
        k(  861) = (   0.1999075   0.3074364   0.0000000), wk =   0.0014793
        k(  862) = (   0.2110135   0.2882216   0.0000000), wk =   0.0014793
        k(  863) = (   0.2221195   0.2690069   0.0000000), wk =   0.0014793
        k(  864) = (   0.2332254   0.2497921   0.0000000), wk =   0.0014793
        k(  865) = (   0.2443314   0.2305773   0.0000000), wk =   0.0014793
        k(  866) = (   0.2554374   0.2113625   0.0000000), wk =   0.0014793
        k(  867) = (   0.2665433   0.1921478   0.0000000), wk =   0.0014793
        k(  868) = (   0.2776493   0.1729330   0.0000000), wk =   0.0014793
        k(  869) = (   0.2887553   0.1537182   0.0000000), wk =   0.0014793
        k(  870) = (   0.2998613   0.1345034   0.0000000), wk =   0.0014793
        k(  871) = (   0.3109672   0.1152887   0.0000000), wk =   0.0014793
        k(  872) = (   0.3220732   0.0960739   0.0000000), wk =   0.0014793
        k(  873) = (   0.3331792   0.0768591   0.0000000), wk =   0.0014793
        k(  874) = (   0.3442852   0.0576443   0.0000000), wk =   0.0014793
        k(  875) = (   0.3553911   0.0384296   0.0000000), wk =   0.0014793
        k(  876) = (   0.3664971   0.0192148   0.0000000), wk =   0.0014793
        k(  877) = (   0.3776031   0.0000000   0.0000000), wk =   0.0014793
        k(  878) = (   0.3887090  -0.0192148   0.0000000), wk =   0.0014793
        k(  879) = (   0.3998150  -0.0384296   0.0000000), wk =   0.0014793
        k(  880) = (   0.4109210  -0.0576443   0.0000000), wk =   0.0014793
        k(  881) = (   0.4220270  -0.0768591   0.0000000), wk =   0.0014793
        k(  882) = (   0.4331329  -0.0960739   0.0000000), wk =   0.0014793
        k(  883) = (   0.4442389  -0.1152887   0.0000000), wk =   0.0014793
        k(  884) = (   0.4553449  -0.1345034   0.0000000), wk =   0.0014793
        k(  885) = (   0.4664509  -0.1537182   0.0000000), wk =   0.0014793
        k(  886) = (  -0.0999538   0.8262354   0.0000000), wk =   0.0014793
        k(  887) = (  -0.0888478   0.8070206   0.0000000), wk =   0.0014793
        k(  888) = (  -0.0777418   0.7878058   0.0000000), wk =   0.0014793
        k(  889) = (  -0.0666358   0.7685911   0.0000000), wk =   0.0014793
        k(  890) = (  -0.0555299   0.7493763   0.0000000), wk =   0.0014793
        k(  891) = (  -0.0444239   0.7301615   0.0000000), wk =   0.0014793
        k(  892) = (  -0.0333179   0.7109467   0.0000000), wk =   0.0014793
        k(  893) = (  -0.0222119   0.6917319   0.0000000), wk =   0.0014793
        k(  894) = (  -0.0111060   0.6725172   0.0000000), wk =   0.0014793
        k(  895) = (   0.0000000   0.6533024   0.0000000), wk =   0.0014793
        k(  896) = (   0.0111060   0.6340876   0.0000000), wk =   0.0014793
        k(  897) = (   0.0222119   0.6148728   0.0000000), wk =   0.0014793
        k(  898) = (   0.0333179   0.5956581   0.0000000), wk =   0.0014793
        k(  899) = (   0.0444239   0.5764433   0.0000000), wk =   0.0014793
        k(  900) = (   0.0555299   0.5572285   0.0000000), wk =   0.0014793
        k(  901) = (   0.0666358   0.5380137   0.0000000), wk =   0.0014793
        k(  902) = (   0.0777418   0.5187990   0.0000000), wk =   0.0014793
        k(  903) = (   0.0888478   0.4995842   0.0000000), wk =   0.0014793
        k(  904) = (   0.0999538   0.4803694   0.0000000), wk =   0.0014793
        k(  905) = (   0.1110597   0.4611546   0.0000000), wk =   0.0014793
        k(  906) = (   0.1221657   0.4419399   0.0000000), wk =   0.0014793
        k(  907) = (   0.1332717   0.4227251   0.0000000), wk =   0.0014793
        k(  908) = (   0.1443776   0.4035103   0.0000000), wk =   0.0014793
        k(  909) = (   0.1554836   0.3842955   0.0000000), wk =   0.0014793
        k(  910) = (   0.1665896   0.3650807   0.0000000), wk =   0.0014793
        k(  911) = (   0.1776956   0.3458660   0.0000000), wk =   0.0014793
        k(  912) = (   0.1999075   0.3458660   0.0000000), wk =   0.0014793
        k(  913) = (   0.2110135   0.3266512   0.0000000), wk =   0.0014793
        k(  914) = (   0.2221195   0.3074364   0.0000000), wk =   0.0014793
        k(  915) = (   0.2332254   0.2882216   0.0000000), wk =   0.0014793
        k(  916) = (   0.2443314   0.2690069   0.0000000), wk =   0.0014793
        k(  917) = (   0.2554374   0.2497921   0.0000000), wk =   0.0014793
        k(  918) = (   0.2665433   0.2305773   0.0000000), wk =   0.0014793
        k(  919) = (   0.2776493   0.2113625   0.0000000), wk =   0.0014793
        k(  920) = (   0.2887553   0.1921478   0.0000000), wk =   0.0014793
        k(  921) = (   0.2998613   0.1729330   0.0000000), wk =   0.0014793
        k(  922) = (   0.3109672   0.1537182   0.0000000), wk =   0.0014793
        k(  923) = (   0.3220732   0.1345034   0.0000000), wk =   0.0014793
        k(  924) = (   0.3331792   0.1152887   0.0000000), wk =   0.0014793
        k(  925) = (   0.3442852   0.0960739   0.0000000), wk =   0.0014793
        k(  926) = (   0.3553911   0.0768591   0.0000000), wk =   0.0014793
        k(  927) = (   0.3664971   0.0576443   0.0000000), wk =   0.0014793
        k(  928) = (   0.3776031   0.0384296   0.0000000), wk =   0.0014793
        k(  929) = (   0.3887090   0.0192148   0.0000000), wk =   0.0014793
        k(  930) = (   0.3998150   0.0000000   0.0000000), wk =   0.0014793
        k(  931) = (   0.4109210  -0.0192148   0.0000000), wk =   0.0014793
        k(  932) = (   0.4220270  -0.0384296   0.0000000), wk =   0.0014793
        k(  933) = (   0.4331329  -0.0576443   0.0000000), wk =   0.0014793
        k(  934) = (   0.4442389  -0.0768591   0.0000000), wk =   0.0014793
        k(  935) = (   0.4553449  -0.0960739   0.0000000), wk =   0.0014793
        k(  936) = (   0.4664509  -0.1152887   0.0000000), wk =   0.0014793
        k(  937) = (   0.4775568  -0.1345034   0.0000000), wk =   0.0014793
        k(  938) = (  -0.0888478   0.8454502   0.0000000), wk =   0.0014793
        k(  939) = (  -0.0777418   0.8262354   0.0000000), wk =   0.0014793
        k(  940) = (  -0.0666358   0.8070206   0.0000000), wk =   0.0014793
        k(  941) = (  -0.0555299   0.7878058   0.0000000), wk =   0.0014793
        k(  942) = (  -0.0444239   0.7685911   0.0000000), wk =   0.0014793
        k(  943) = (  -0.0333179   0.7493763   0.0000000), wk =   0.0014793
        k(  944) = (  -0.0222119   0.7301615   0.0000000), wk =   0.0014793
        k(  945) = (  -0.0111060   0.7109467   0.0000000), wk =   0.0014793
        k(  946) = (   0.0000000   0.6917319   0.0000000), wk =   0.0014793
        k(  947) = (   0.0111060   0.6725172   0.0000000), wk =   0.0014793
        k(  948) = (   0.0222119   0.6533024   0.0000000), wk =   0.0014793
        k(  949) = (   0.0333179   0.6340876   0.0000000), wk =   0.0014793
        k(  950) = (   0.0444239   0.6148728   0.0000000), wk =   0.0014793
        k(  951) = (   0.0555299   0.5956581   0.0000000), wk =   0.0014793
        k(  952) = (   0.0666358   0.5764433   0.0000000), wk =   0.0014793
        k(  953) = (   0.0777418   0.5572285   0.0000000), wk =   0.0014793
        k(  954) = (   0.0888478   0.5380137   0.0000000), wk =   0.0014793
        k(  955) = (   0.0999538   0.5187990   0.0000000), wk =   0.0014793
        k(  956) = (   0.1110597   0.4995842   0.0000000), wk =   0.0014793
        k(  957) = (   0.1221657   0.4803694   0.0000000), wk =   0.0014793
        k(  958) = (   0.1332717   0.4611546   0.0000000), wk =   0.0014793
        k(  959) = (   0.1443776   0.4419399   0.0000000), wk =   0.0014793
        k(  960) = (   0.1554836   0.4227251   0.0000000), wk =   0.0014793
        k(  961) = (   0.1665896   0.4035103   0.0000000), wk =   0.0014793
        k(  962) = (   0.1776956   0.3842955   0.0000000), wk =   0.0014793
        k(  963) = (   0.1888015   0.3650807   0.0000000), wk =   0.0014793
        k(  964) = (   0.2110135   0.3650807   0.0000000), wk =   0.0014793
        k(  965) = (   0.2221195   0.3458660   0.0000000), wk =   0.0014793
        k(  966) = (   0.2332254   0.3266512   0.0000000), wk =   0.0014793
        k(  967) = (   0.2443314   0.3074364   0.0000000), wk =   0.0014793
        k(  968) = (   0.2554374   0.2882216   0.0000000), wk =   0.0014793
        k(  969) = (   0.2665433   0.2690069   0.0000000), wk =   0.0014793
        k(  970) = (   0.2776493   0.2497921   0.0000000), wk =   0.0014793
        k(  971) = (   0.2887553   0.2305773   0.0000000), wk =   0.0014793
[...]
     0.0000   0.0000   0.0000   0.0000   0.0000   0.0000   0.0000   0.0000
     0.0000   0.0000   0.0000   0.0000   0.0000   0.0000

          k =-0.2776-0.5188 0.0000 ( 10142 PWs)   bands (ev):

   -21.6254 -21.5945 -10.3089 -10.0395  -7.2609  -7.2215  -6.8810  -6.2565
    -2.8422  -0.6151   2.6017   5.0347   5.1406   6.3060   6.3451   6.7478
     7.6313   7.8211   8.2391   8.5859   8.6337   8.9763   9.0666   9.5068
     9.6164  10.1468  10.2817  10.8707  10.9126  11.6179

     occupation numbers 
     1.0000   1.0000   1.0000   1.0000   1.0000   1.0000   1.0000   1.0000
     1.0000   0.0000   0.0000   0.0000   0.0000   0.0000   0.0000   0.0000
     0.0000   0.0000   0.0000   0.0000   0.0000   0.0000   0.0000   0.0000
     0.0000   0.0000   0.0000   0.0000   0.0000   0.0000

          k =-0.2665-0.5380 0.0000 ( 10124 PWs)   bands (ev):

   -21.6258 -21.5948 -10.2902 -10.0211  -7.2982  -7.2528  -6.8814  -6.2570
    -2.8376  -0.5737   2.6367   5.0475   5.1514   6.2112   6.2924   6.6424
     7.7211   7.7920   8.1090   8.5340   8.7839   9.0179   9.1287   9.5982
     9.6805  10.1886  10.2597  10.8878  11.0022  11.5381

     occupation numbers 
     1.0000   1.0000   1.0000   1.0000   1.0000   1.0000   1.0000   1.0000
     1.0000   0.0000   0.0000   0.0000   0.0000   0.0000   0.0000   0.0000
     0.0000   0.0000   0.0000   0.0000   0.0000   0.0000   0.0000   0.0000
     0.0000   0.0000   0.0000   0.0000   0.0000   0.0000

          k =-0.2554-0.5572 0.0000 ( 10128 PWs)   bands (ev):

   -21.6263 -21.5952 -10.2597  -9.9909  -7.3575  -7.3035  -6.8829  -6.2580
    -2.8300  -0.5061   2.6932   5.0674   5.1579   5.9747   6.2727   6.6003
     7.7110   7.7466   8.0622   8.4724   8.8480   9.1978   9.2042   9.6715
     9.7668  10.2480  10.3137  10.9210  11.1048  11.4236

     occupation numbers 
     1.0000   1.0000   1.0000   1.0000   1.0000   1.0000   1.0000   1.0000
     1.0000   0.0000   0.0000   0.0000   0.0000   0.0000   0.0000   0.0000
     0.0000   0.0000   0.0000   0.0000   0.0000   0.0000   0.0000   0.0000
     0.0000   0.0000   0.0000   0.0000   0.0000   0.0000

          k =-0.2443-0.5764 0.0000 ( 10126 PWs)   bands (ev):

   -21.6270 -21.5959 -10.2179  -9.9496  -7.4354  -7.3716  -6.8863  -6.2593
    -2.8199  -0.4144   2.7682   5.0921   5.1296   5.7221   6.2509   6.6021
     7.6157   7.6884   8.0533   8.4132   8.9157   9.2689   9.4107   9.7521
     9.8557  10.2732  10.5114  10.9730  11.1834  11.2970

     occupation numbers 
     1.0000   1.0000   1.0000   1.0000   1.0000   1.0000   1.0000   1.0000
     1.0000   0.0000   0.0000   0.0000   0.0000   0.0000   0.0000   0.0000
     0.0000   0.0000   0.0000   0.0000   0.0000   0.0000   0.0000   0.0000
     0.0000   0.0000   0.0000   0.0000   0.0000   0.0000

          k =-0.2332-0.5957 0.0000 ( 10109 PWs)   bands (ev):

   -21.6278 -21.5966 -10.1659  -9.8981  -7.5282  -7.4544  -6.8914  -6.2608
    -2.8079  -0.3014   2.8580   4.9977   5.1189   5.5554   6.2315   6.6309
     7.5042   7.6219   8.0260   8.3604   8.9837   9.3019   9.5899   9.9214
     9.9387  10.3497  10.7183  11.0132  11.2141  11.2490

     occupation numbers 
     1.0000   1.0000   1.0000   1.0000   1.0000   1.0000   1.0000   1.0000
     1.0000   0.0000   0.0000   0.0000   0.0000   0.0000   0.0000   0.0000
     0.0000   0.0000   0.0000   0.0000   0.0000   0.0000   0.0000   0.0000
     0.0000   0.0000   0.0000   0.0000   0.0000   0.0000

          k =-0.2221-0.6149 0.0000 ( 10114 PWs)   bands (ev):

   -21.6287 -21.5974 -10.1051  -9.8378  -7.6319  -7.5485  -6.8980  -6.2624
    -2.7946  -0.1705   2.9581   4.7458   5.1444   5.5040   6.2191   6.6826
     7.4005   7.5514   7.9825   8.3143   9.0130   9.2963   9.7671  10.0134
    10.1783  10.4740  10.8443  10.9424  11.2943  11.3843

     occupation numbers 
     1.0000   1.0000   1.0000   1.0000   1.0000   1.0000   1.0000   1.0000
     1.0000   0.0000   0.0000   0.0000   0.0000   0.0000   0.0000   0.0000
     0.0000   0.0000   0.0000   0.0000   0.0000   0.0000   0.0000   0.0000
     0.0000   0.0000   0.0000   0.0000   0.0000   0.0000

          k =-0.2110-0.6341 0.0000 ( 10125 PWs)   bands (ev):

   -21.6296 -21.5982 -10.0378  -9.7708  -7.7419  -7.6499  -6.9056  -6.2641
    -2.7807  -0.0259   3.0631   4.4466   5.1652   5.5016   6.2171   6.7542
     7.3127   7.4808   7.9340   8.2733   8.9998   9.2640   9.9820  10.0688
    10.4726  10.6315  10.8416  10.8657  11.4752  11.6250

     occupation numbers 
     1.0000   1.0000   1.0000   1.0000   1.0000   1.0000   1.0000   1.0000
     1.0000   0.0000   0.0000   0.0000   0.0000   0.0000   0.0000   0.0000
     0.0000   0.0000   0.0000   0.0000   0.0000   0.0000   0.0000   0.0000
     0.0000   0.0000   0.0000   0.0000   0.0000   0.0000

          k =-0.1999-0.6533 0.0000 ( 10131 PWs)   bands (ev):

   -21.6305 -21.5989  -9.9665  -9.6996  -7.8533  -7.7540  -6.9133  -6.2657
    -2.7672   0.1269   3.1674   4.1453   5.1792   5.5100   6.2271   6.8372
     7.2479   7.4130   7.8873   8.2355   8.9608   9.2214  10.0985  10.2258
    10.6709  10.7306  10.9000  10.9077  11.7018  11.9136

     occupation numbers 
     1.0000   1.0000   1.0000   1.0000   1.0000   1.0000   1.0000   1.0000
     1.0000   0.0000   0.0000   0.0000   0.0000   0.0000   0.0000   0.0000
     0.0000   0.0000   0.0000   0.0000   0.0000   0.0000   0.0000   0.0000
     0.0000   0.0000   0.0000   0.0000   0.0000   0.0000

          k =-0.1888-0.6725 0.0000 ( 10136 PWs)   bands (ev):

   -21.6313 -21.5996  -9.8952  -9.6279  -7.9603  -7.8553  -6.9206  -6.2671
    -2.7548   0.2807   3.2647   3.8631   5.1858   5.5178   6.2480   6.9117
     7.2193   7.3509   7.8460   8.1999   8.9100   9.1810  10.1076  10.4654
    10.5878  10.7691  11.1449  11.1819  11.9487  12.1986

     occupation numbers 
     1.0000   1.0000   1.0000   1.0000   1.0000   1.0000   1.0000   1.0000
     1.0000   0.0000   0.0000   0.0000   0.0000   0.0000   0.0000   0.0000
     0.0000   0.0000   0.0000   0.0000   0.0000   0.0000   0.0000   0.0000
     0.0000   0.0000   0.0000   0.0000   0.0000   0.0000

          k =-0.1777-0.6917 0.0000 ( 10132 PWs)   bands (ev):

   -21.6319 -21.6002  -9.8287  -9.5608  -8.0563  -7.9472  -6.9269  -6.2683
    -2.7442   0.4256   3.3490   3.6151   5.1864   5.5226   6.2756   6.9500
     7.2437   7.2969   7.8119   8.1674   8.8563   9.1492  10.1051  10.5104
    10.5825  10.8843  11.4158  11.5334  12.1689  12.3903

     occupation numbers 
     1.0000   1.0000   1.0000   1.0000   1.0000   1.0000   1.0000   1.0000
     1.0000   0.0000   0.0000   0.0000   0.0000   0.0000   0.0000   0.0000
     0.0000   0.0000   0.0000   0.0000   0.0000   0.0000   0.0000   0.0000
     0.0000   0.0000   0.0000   0.0000   0.0000   0.0000

          k =-0.1666-0.7109 0.0000 ( 10134 PWs)   bands (ev):

   -21.6324 -21.6006  -9.7734  -9.5044  -8.1339  -8.0223  -6.9316  -6.2692
    -2.7360   0.5483   3.4143   3.4173   5.1836   5.5248   6.3035   6.9533
     7.2543   7.3049   7.7861   8.1405   8.8076   9.1281  10.0988  10.4508
    10.5711  11.1270  11.6941  11.8952  12.2827  12.3732

     occupation numbers 
     1.0000   1.0000   1.0000   1.0000   1.0000   1.0000   1.0000   1.0000
     1.0000   0.0000   0.0000   0.0000   0.0000   0.0000   0.0000   0.0000
     0.0000   0.0000   0.0000   0.0000   0.0000   0.0000   0.0000   0.0000
     0.0000   0.0000   0.0000   0.0000   0.0000   0.0000

          k =-0.1555-0.7302 0.0000 ( 10133 PWs)   bands (ev):

   -21.6326 -21.6008  -9.7360  -9.4661  -8.1851  -8.0724  -6.9346  -6.2697
    -2.7307   0.6324   3.2873   3.4556   5.1805   5.5255   6.3246   6.9466
     7.2268   7.3605   7.7700   8.1227   8.7727   9.1166  10.0935  10.4129
    10.5478  11.3612  11.9399  12.1329  12.3316  12.3812

     occupation numbers 
     1.0000   1.0000   1.0000   1.0000   1.0000   1.0000   1.0000   1.0000
     1.0000   0.0000   0.0000   0.0000   0.0000   0.0000   0.0000   0.0000
     0.0000   0.0000   0.0000   0.0000   0.0000   0.0000   0.0000   0.0000
     0.0000   0.0000   0.0000   0.0000   0.0000   0.0000

          k =-0.1444-0.7494 0.0000 ( 10133 PWs)   bands (ev):

   -21.6326 -21.6007  -9.7222  -9.4520  -8.2037  -8.0907  -6.9355  -6.2697
    -2.7285   0.6627   3.2409   3.4694   5.1794   5.5256   6.3327   6.9433
     7.2176   7.3812   7.7654   8.1167   8.7604   9.1128  10.0915  10.3999
    10.5389  11.4784  12.0514  12.0889  12.3782  12.6651

     occupation numbers 
     1.0000   1.0000   1.0000   1.0000   1.0000   1.0000   1.0000   1.0000
     1.0000   0.0000   0.0000   0.0000   0.0000   0.0000   0.0000   0.0000
     0.0000   0.0000   0.0000   0.0000   0.0000   0.0000   0.0000   0.0000
     0.0000   0.0000   0.0000   0.0000   0.0000   0.0000

          k =-0.1333-0.7686 0.0000 ( 10139 PWs)   bands (ev):

   -21.6323 -21.6005  -9.7346  -9.4648  -8.1871  -8.0744  -6.9343  -6.2694
    -2.7296   0.6328   3.2849   3.4546   5.1811   5.5253   6.3256   6.9465
     7.2280   7.3575   7.7729   8.1237   8.7744   9.1159  10.0934  10.4129
    10.5490  11.3714  11.9490  12.1324  12.3355  12.3915

     occupation numbers 
     1.0000   1.0000   1.0000   1.0000   1.0000   1.0000   1.0000   1.0000
     1.0000   0.0000   0.0000   0.0000   0.0000   0.0000   0.0000   0.0000
     0.0000   0.0000   0.0000   0.0000   0.0000   0.0000   0.0000   0.0000
     0.0000   0.0000   0.0000   0.0000   0.0000   0.0000

          k =-0.1222-0.7878 0.0000 ( 10137 PWs)   bands (ev):

   -21.6318 -21.6001  -9.7709  -9.5021  -8.1376  -8.0261  -6.9310  -6.2687
    -2.7338   0.5489   3.4123   3.4128   5.1848   5.5243   6.3055   6.9526
     7.2567   7.3007   7.7909   8.1427   8.8106   9.1268  10.0987  10.4507
    10.5735  11.1401  11.7065  11.9106  12.2866  12.3705

     occupation numbers 
     1.0000   1.0000   1.0000   1.0000   1.0000   1.0000   1.0000   1.0000
     1.0000   0.0000   0.0000   0.0000   0.0000   0.0000   0.0000   0.0000
     0.0000   0.0000   0.0000   0.0000   0.0000   0.0000   0.0000   0.0000
     0.0000   0.0000   0.0000   0.0000   0.0000   0.0000

          k =-0.1111-0.8070 0.0000 ( 10126 PWs)   bands (ev):

   -21.6311 -21.5994  -9.8254  -9.5576  -8.0615  -7.9524  -6.9259  -6.2675
    -2.7409   0.4262   3.3461   3.6087   5.1881   5.5217   6.2786   6.9474
     7.2410   7.3004   7.8176   8.1705   8.8603   9.1476  10.1054  10.5100
    10.5869  10.8970  11.4284  11.5492  12.1762  12.3976

     occupation numbers 
     1.0000   1.0000   1.0000   1.0000   1.0000   1.0000   1.0000   1.0000
     1.0000   0.0000   0.0000   0.0000   0.0000   0.0000   0.0000   0.0000
     0.0000   0.0000   0.0000   0.0000   0.0000   0.0000   0.0000   0.0000
     0.0000   0.0000   0.0000   0.0000   0.0000   0.0000

          k =-0.1000-0.8262 0.0000 ( 10134 PWs)   bands (ev):

   -21.6303 -21.5986  -9.8912  -9.6243  -7.9666  -7.8616  -6.9193  -6.2661
    -2.7504   0.2808   3.2611   3.8553   5.1879   5.5164   6.2522   6.9064
     7.2201   7.3553   7.8523   8.2038   8.9145   9.1795  10.1086  10.4755
    10.5873  10.7767  11.1563  11.1968  11.9584  12.2115

     occupation numbers 
     1.0000   1.0000   1.0000   1.0000   1.0000   1.0000   1.0000   1.0000
     1.0000   0.0000   0.0000   0.0000   0.0000   0.0000   0.0000   0.0000
     0.0000   0.0000   0.0000   0.0000   0.0000   0.0000   0.0000   0.0000
     0.0000   0.0000   0.0000   0.0000   0.0000   0.0000

          k =-0.0888-0.8455 0.0000 ( 10133 PWs)   bands (ev):

   -21.6293 -21.5977  -9.9622  -9.6956  -7.8605  -7.7612  -6.9118  -6.2644
    -2.7618   0.1264   3.1630   4.1364   5.1817   5.5078   6.2325   6.8308
     7.2511   7.4183   7.8939   8.2399   8.9655   9.2206  10.1004  10.2378
    10.6724  10.7398  10.9107  10.9153  11.7113  11.9264

     occupation numbers 
     1.0000   1.0000   1.0000   1.0000   1.0000   1.0000   1.0000   1.0000
     1.0000   0.0000   0.0000   0.0000   0.0000   0.0000   0.0000   0.0000
     0.0000   0.0000   0.0000   0.0000   0.0000   0.0000   0.0000   0.0000
     0.0000   0.0000   0.0000   0.0000   0.0000   0.0000

          k =-0.0777-0.8647 0.0000 ( 10131 PWs)   bands (ev):

   -21.6282 -21.5967 -10.0332  -9.7667  -7.7498  -7.6579  -6.9038  -6.2626
    -2.7743  -0.0271   3.0582   4.4367   5.1680   5.4986   6.2236   6.7481
     7.3173   7.4869   7.9409   8.2781   9.0043   9.2644   9.9942  10.0719
    10.4850  10.6427  10.8375  10.8715  11.4829  11.6369

     occupation numbers 
     1.0000   1.0000   1.0000   1.0000   1.0000   1.0000   1.0000   1.0000
     1.0000   0.0000   0.0000   0.0000   0.0000   0.0000   0.0000   0.0000
     0.0000   0.0000   0.0000   0.0000   0.0000   0.0000   0.0000   0.0000
     0.0000   0.0000   0.0000   0.0000   0.0000   0.0000

          k =-0.0666-0.8839 0.0000 ( 10120 PWs)   bands (ev):

   -21.6271 -21.5957 -10.1005  -9.8336  -7.6404  -7.5571  -6.8960  -6.2608
    -2.7872  -0.1723   2.9526   4.7353   5.1475   5.5001   6.2266   6.6773
     7.4060   7.5582   7.9896   8.3193   9.0171   9.2988   9.7796  10.0178
    10.1900  10.4832  10.8491  10.9398  11.2982  11.3956

     occupation numbers 
     1.0000   1.0000   1.0000   1.0000   1.0000   1.0000   1.0000   1.0000
     1.0000   0.0000   0.0000   0.0000   0.0000   0.0000   0.0000   0.0000
     0.0000   0.0000   0.0000   0.0000   0.0000   0.0000   0.0000   0.0000
     0.0000   0.0000   0.0000   0.0000   0.0000   0.0000

          k =-0.0555-0.9031 0.0000 ( 10111 PWs)   bands (ev):

   -21.6260 -21.5948 -10.1611  -9.8939  -7.5372  -7.4635  -6.8891  -6.2590
    -2.7998  -0.3039   2.8521   4.9872   5.1224   5.5506   6.2400   6.6261
     7.5106   7.6293   8.0330   8.3655   8.9873   9.3070   9.6027   9.9318
     9.9440  10.3565  10.7228  11.0202  11.2064  11.2592

     occupation numbers 
     1.0000   1.0000   1.0000   1.0000   1.0000   1.0000   1.0000   1.0000
     1.0000   0.0000   0.0000   0.0000   0.0000   0.0000   0.0000   0.0000
     0.0000   0.0000   0.0000   0.0000   0.0000   0.0000   0.0000   0.0000
     0.0000   0.0000   0.0000   0.0000   0.0000   0.0000

          k =-0.0444-0.9223 0.0000 ( 10126 PWs)   bands (ev):

   -21.6250 -21.5939 -10.2131  -9.9454  -7.4448  -7.3811  -6.8838  -6.2574
    -2.8111  -0.4176   2.7620   5.0960   5.1198   5.7164   6.2600   6.5970
     7.6229   7.6962   8.0597   8.4183   8.9196   9.2769   9.4228   9.7619
     9.8615  10.2779  10.5160  10.9840  11.1919  11.2837

     occupation numbers 
     1.0000   1.0000   1.0000   1.0000   1.0000   1.0000   1.0000   1.0000
     1.0000   0.0000   0.0000   0.0000   0.0000   0.0000   0.0000   0.0000
     0.0000   0.0000   0.0000   0.0000   0.0000   0.0000   0.0000   0.0000
     0.0000   0.0000   0.0000   0.0000   0.0000   0.0000

          k =-0.0333-0.9415 0.0000 ( 10124 PWs)   bands (ev):

   -21.6242 -21.5932 -10.2549  -9.9868  -7.3672  -7.3133  -6.8802  -6.2560
    -2.8205  -0.5098   2.6867   5.0714   5.1486   5.9704   6.2824   6.5930
     7.7185   7.7549   8.0675   8.4775   8.8535   9.2079   9.2145   9.6811
     9.7726  10.2510  10.3189  10.9321  11.1113  11.4094

     occupation numbers 
     1.0000   1.0000   1.0000   1.0000   1.0000   1.0000   1.0000   1.0000
     1.0000   0.0000   0.0000   0.0000   0.0000   0.0000   0.0000   0.0000
     0.0000   0.0000   0.0000   0.0000   0.0000   0.0000   0.0000   0.0000
     0.0000   0.0000   0.0000   0.0000   0.0000   0.0000

          k =-0.0222-0.9607 0.0000 ( 10130 PWs)   bands (ev):

   -21.6236 -21.5926 -10.2855 -10.0170  -7.3082  -7.2628  -6.8785  -6.2549
    -2.8277  -0.5779   2.6301   5.0518   5.1421   6.2122   6.3025   6.6291
     7.7274   7.8006   8.1146   8.5387   8.7931   9.0249   9.1410   9.6066
     9.6857  10.1954  10.2618  10.8997  11.0069  11.5226

     occupation numbers 
     1.0000   1.0000   1.0000   1.0000   1.0000   1.0000   1.0000   1.0000
     1.0000   0.0000   0.0000   0.0000   0.0000   0.0000   0.0000   0.0000
     0.0000   0.0000   0.0000   0.0000   0.0000   0.0000   0.0000   0.0000
     0.0000   0.0000   0.0000   0.0000   0.0000   0.0000

          k =-0.0111-0.9800 0.0000 ( 10136 PWs)   bands (ev):

   -21.6232 -21.5923 -10.3041 -10.0354  -7.2711  -7.2316  -6.8779  -6.2543
    -2.8321  -0.6196   2.5950   5.0391   5.1313   6.3164   6.3523   6.7270
     7.6368   7.8298   8.2455   8.5900   8.6450   8.9824   9.0807   9.5136
     9.6209  10.1555  10.2833  10.8838  10.9162  11.6003

     occupation numbers 
     1.0000   1.0000   1.0000   1.0000   1.0000   1.0000   1.0000   1.0000
     1.0000   0.0000   0.0000   0.0000   0.0000   0.0000   0.0000   0.0000
     0.0000   0.0000   0.0000   0.0000   0.0000   0.0000   0.0000   0.0000
     0.0000   0.0000   0.0000   0.0000   0.0000   0.0000

          k =-0.5775 0.0000 0.0000 ( 10138 PWs)   bands (ev):

   -21.6231 -21.5922 -10.3104 -10.0415  -7.2584  -7.2211  -6.8779  -6.2541
    -2.8336  -0.6336   2.5831   5.0348   5.1267   6.3214   6.3876   6.7960
     7.5760   7.8399   8.3762   8.4989   8.6114   8.9954   9.0565   9.4657
     9.5968  10.1517  10.2933  10.8789  10.8802  11.6266

     occupation numbers 
     1.0000   1.0000   1.0000   1.0000   1.0000   1.0000   1.0000   1.0000
     1.0000   0.0000   0.0000   0.0000   0.0000   0.0000   0.0000   0.0000
     0.0000   0.0000   0.0000   0.0000   0.0000   0.0000   0.0000   0.0000
     0.0000   0.0000   0.0000   0.0000   0.0000   0.0000

     the Fermi energy is    -1.0276 ev
     (compare with:    -2.1346 eV, computed in scf)

     Writing all to output data dir ./work/Al2O2.save/
 
     init_run     :      4.77s CPU      4.88s WALL (       1 calls)
     electrons    :   1601.50s CPU   1907.43s WALL (       1 calls)

     Called by init_run:
     wfcinit      :      0.00s CPU      0.00s WALL (       1 calls)
     wfcinit:atom :      0.21s CPU      0.25s WALL (    1354 calls)
     wfcinit:wfcr :     29.42s CPU     37.49s WALL (    1354 calls)
     potinit      :      4.45s CPU      4.49s WALL (       1 calls)
     hinit0       :      0.16s CPU      0.17s WALL (       1 calls)

     Called by electrons:
     c_bands      :   1601.41s CPU   1907.29s WALL (       1 calls)
     v_of_rho     :      4.39s CPU      4.42s WALL (       1 calls)
     v_h          :      0.00s CPU      0.00s WALL (       1 calls)
     v_xc         :      4.39s CPU      4.42s WALL (       1 calls)
     newd         :      0.03s CPU      0.05s WALL (       1 calls)
     PAW_pot      :      0.05s CPU      0.06s WALL (       1 calls)
     vdW_kernel   :      4.33s CPU      4.35s WALL (       1 calls)

     Called by c_bands:
     init_us_2    :      0.53s CPU      0.66s WALL (    1354 calls)
     init_us_2:cp :      0.52s CPU      0.65s WALL (    1354 calls)
     cegterg      :   1565.32s CPU   1862.42s WALL (    4994 calls)

     Called by sum_band:

     Called by *egterg:
     cdiaghg      :    105.45s CPU    112.53s WALL (   89780 calls)
     cegterg:over :    106.57s CPU    116.85s WALL (   88426 calls)
     cegterg:upda :     58.69s CPU     60.34s WALL (   88426 calls)
     cegterg:last :    163.57s CPU    165.14s WALL (   52577 calls)
     h_psi        :   1074.52s CPU   1353.45s WALL (   94774 calls)
     s_psi        :     47.97s CPU     52.00s WALL (   94774 calls)
     g_psi        :      4.24s CPU      4.34s WALL (   88426 calls)

     Called by h_psi:
     h_psi:calbec :     58.96s CPU     73.43s WALL (   94774 calls)
     vloc_psi     :    931.51s CPU   1184.47s WALL (   94774 calls)
     add_vuspsi   :     73.68s CPU     84.86s WALL (   94774 calls)

     General routines
     calbec       :     58.72s CPU     73.16s WALL (   94774 calls)
     fft          :      0.03s CPU      0.04s WALL (      62 calls)
     fftw         :    882.48s CPU   1124.23s WALL ( 3198958 calls)
     davcio       :      0.85s CPU      1.18s WALL (    2708 calls)
 
     Parallel routines

     PAW routines
     PAW_pot      :      0.05s CPU      0.06s WALL (       1 calls)
 
     PWSCF        :  26m51.41s CPU  32m 7.76s WALL

 
   This run was terminated on:  13:43:58  22Jun2023            

=------------------------------------------------------------------------------=
   JOB DONE.
=------------------------------------------------------------------------------=
