
     Program PWSCF v.7.0 starts on 18Jun2023 at 15:14: 0 

     This program is part of the open-source Quantum ESPRESSO suite
     for quantum simulation of materials; please cite
         "P. Giannozzi et al., J. Phys.:Condens. Matter 21 395502 (2009);
         "P. Giannozzi et al., J. Phys.:Condens. Matter 29 465901 (2017);
         "P. Giannozzi et al., J. Chem. Phys. 152 154105 (2020);
          URL http://www.quantum-espresso.org", 
     in publications or presentations arising from this work. More details at
     http://www.quantum-espresso.org/quote

     Parallel version (MPI), running on    16 processors

     MPI processes distributed on     1 nodes
     R & G space division:  proc/nbgrp/npool/nimage =      16
     3693 MiB available memory on the printing compute node when the environment starts
 
     Waiting for input...
     Reading input from standard input

     Current dimensions of program PWSCF are:
     Max number of different atomic species (ntypx) = 10
     Max number of k-points (npk) =  40000
     Max angular momentum in pseudopotentials (lmaxx) =  4
     Message from routine volume:
     axis vectors are left-handed

     Atomic positions and unit cell read from directory:
     ./work/Al2S2.save/
     Atomic positions from file used, from input discarded
 
     Message from routine volume:
     axis vectors are left-handed
     file Al.pbe-n-kjpaw_psl.1.0.0.UPF: wavefunction(s)  3S 3P renormalized
     file S.pbe-n-kjpaw_psl.1.0.0.UPF: wavefunction(s)  3S 3P renormalized
     Message from routine setup:
     using ibrav=0 with symmetry is DISCOURAGED, use correct ibrav instead

     Subspace diagonalization in iterative solution of the eigenvalue problem:
     a serial algorithm will be used

 
     Parallelization info
     --------------------
     sticks:   dense  smooth     PW     G-vecs:    dense   smooth      PW
     Min          39      39     11                 4469     4469     711
     Max          40      40     12                 4473     4473     728
     Sum         625     625    187                71529    71529   11567
 
     Using Slab Decomposition
 


     bravais-lattice index     =            0
     lattice parameter (alat)  =       6.1344  a.u.
     unit-cell volume          =    1141.7010 (a.u.)^3
     number of atoms/cell      =            8
     number of atomic types    =            2
     number of electrons       =        36.00
     number of Kohn-Sham states=           70
     kinetic-energy cutoff     =      60.0000  Ry
     charge density cutoff     =     240.0000  Ry
     Exchange-correlation= SLA  PW   PBX  PBC
                           (   1   4   3   4   0   0   0)

     celldm(1)=   6.134387  celldm(2)=   0.000000  celldm(3)=   0.000000
     celldm(4)=   0.000000  celldm(5)=   0.000000  celldm(6)=   0.000000

     crystal axes: (cart. coord. in units of alat)
               a(1) = (   0.865734   0.500504   0.000000 )  
               a(2) = (   0.865734  -0.500504   0.000000 )  
               a(3) = (   0.000000   0.000000   5.707117 )  

     reciprocal axes: (cart. coord. in units 2 pi/alat)
               b(1) = (  0.577544  0.998993  0.000000 )  
               b(2) = (  0.577544 -0.998993  0.000000 )  
               b(3) = (  0.000000  0.000000  0.175220 )  


     PseudoPot. # 1 for Al read from file:
     /home/mainadmin/research/danu/pseudo/Al.pbe-n-kjpaw_psl.1.0.0.UPF
     MD5 check sum: 502b6b27b9c6270cab5dd1084b96fa6d
     Pseudo is Projector augmented-wave + core cor, Zval =  3.0
     Generated using &quot;atomic&quot; code by A. Dal Corso  v.6.3
     Shape of augmentation charge: PSQ
     Using radial grid of 1135 points,  6 beta functions with: 
                l(1) =   0
                l(2) =   0
                l(3) =   1
                l(4) =   1
                l(5) =   2
                l(6) =   2
     Q(r) pseudized with 0 coefficients 


     PseudoPot. # 2 for S  read from file:
     /home/mainadmin/research/danu/pseudo/S.pbe-n-kjpaw_psl.1.0.0.UPF
     MD5 check sum: fb45dfebcf3e72a4e1bd4a866ec2e262
     Pseudo is Projector augmented-wave + core cor, Zval =  6.0
     Generated using &quot;atomic&quot; code by A. Dal Corso  v.6.3
     Shape of augmentation charge: PSQ
     Using radial grid of 1151 points,  6 beta functions with: 
                l(1) =   0
                l(2) =   0
                l(3) =   1
                l(4) =   1
                l(5) =   2
                l(6) =   2
     Q(r) pseudized with 0 coefficients 


     atomic species   valence    mass     pseudopotential
        Al             3.00    26.98100     Al( 1.00)
        S              6.00    32.06500     S ( 1.00)

      2 Sym. Ops. (no inversion) found



   Cartesian axes

     site n.     atom                  positions (alat units)
         1           S   tau(   1) = (   1.1543123   0.0000000   0.0000000  )
         2           Al  tau(   2) = (   0.5771561   0.0000000   0.3770546  )
         3           Al  tau(   3) = (   0.5771561   0.0000000   1.1805542  )
         4           S   tau(   4) = (   1.1543123   0.0000000   1.5578884  )
         5           S   tau(   5) = (   0.5771561   0.0000000   2.8534727  )
         6           Al  tau(   6) = (   1.1543123   0.0000000   3.2309266  )
         7           Al  tau(   7) = (   1.1543123   0.0000000   4.0343399  )
         8           S   tau(   8) = (   0.5771561   0.0000000   4.4115329  )

     number of k points=    91
                       cart. coord. in units 2pi/alat
        k(    1) = (   0.0000000   0.0000000   0.0000000), wk =   0.0219780
        k(    2) = (   0.0192515   0.0110848   0.0000000), wk =   0.0219780
        k(    3) = (   0.0385030   0.0221697   0.0000000), wk =   0.0219780
        k(    4) = (   0.0577544   0.0332545   0.0000000), wk =   0.0219780
        k(    5) = (   0.0770059   0.0443393   0.0000000), wk =   0.0219780
        k(    6) = (   0.0962574   0.0554241   0.0000000), wk =   0.0219780
        k(    7) = (   0.1155089   0.0665090   0.0000000), wk =   0.0219780
        k(    8) = (   0.1347604   0.0775938   0.0000000), wk =   0.0219780
        k(    9) = (   0.1540119   0.0886786   0.0000000), wk =   0.0219780
        k(   10) = (   0.1732633   0.0997634   0.0000000), wk =   0.0219780
        k(   11) = (   0.1925148   0.1108483   0.0000000), wk =   0.0219780
        k(   12) = (   0.2117663   0.1219331   0.0000000), wk =   0.0219780
        k(   13) = (   0.2310178   0.1330179   0.0000000), wk =   0.0219780
        k(   14) = (   0.2502693   0.1441027   0.0000000), wk =   0.0219780
        k(   15) = (   0.2695208   0.1551876   0.0000000), wk =   0.0219780
        k(   16) = (   0.2887722   0.1662724   0.0000000), wk =   0.0219780
        k(   17) = (   0.3080237   0.1773572   0.0000000), wk =   0.0219780
        k(   18) = (   0.3272752   0.1884420   0.0000000), wk =   0.0219780
        k(   19) = (   0.3465267   0.1995269   0.0000000), wk =   0.0219780
        k(   20) = (   0.3657782   0.2106117   0.0000000), wk =   0.0219780
        k(   21) = (   0.3850296   0.2216965   0.0000000), wk =   0.0219780
        k(   22) = (   0.4042811   0.2327813   0.0000000), wk =   0.0219780
        k(   23) = (   0.4235326   0.2438662   0.0000000), wk =   0.0219780
        k(   24) = (   0.4427841   0.2549510   0.0000000), wk =   0.0219780
        k(   25) = (   0.4620356   0.2660358   0.0000000), wk =   0.0219780
        k(   26) = (   0.4812871   0.2771206   0.0000000), wk =   0.0219780
        k(   27) = (   0.5005385   0.2882055   0.0000000), wk =   0.0219780
        k(   28) = (   0.5197900   0.2992903   0.0000000), wk =   0.0219780
        k(   29) = (   0.5390415   0.3103751   0.0000000), wk =   0.0219780
        k(   30) = (   0.5582930   0.3214599   0.0000000), wk =   0.0219780
        k(   31) = (   0.5775445   0.3325448   0.0000000), wk =   0.0219780
        k(   32) = (   0.5775445   0.3214599   0.0000000), wk =   0.0219780
        k(   33) = (   0.5775445   0.3103751   0.0000000), wk =   0.0219780
        k(   34) = (   0.5775445   0.2992903   0.0000000), wk =   0.0219780
        k(   35) = (   0.5775445   0.2882055   0.0000000), wk =   0.0219780
        k(   36) = (   0.5775445   0.2771206   0.0000000), wk =   0.0219780
        k(   37) = (   0.5775445   0.2660358   0.0000000), wk =   0.0219780
        k(   38) = (   0.5775445   0.2549510   0.0000000), wk =   0.0219780
        k(   39) = (   0.5775445   0.2438662   0.0000000), wk =   0.0219780
        k(   40) = (   0.5775445   0.2327813   0.0000000), wk =   0.0219780
        k(   41) = (   0.5775445   0.2216965   0.0000000), wk =   0.0219780
        k(   42) = (   0.5775445   0.2106117   0.0000000), wk =   0.0219780
        k(   43) = (   0.5775445   0.1995269   0.0000000), wk =   0.0219780
        k(   44) = (   0.5775445   0.1884420   0.0000000), wk =   0.0219780
        k(   45) = (   0.5775445   0.1773572   0.0000000), wk =   0.0219780
        k(   46) = (   0.5775445   0.1662724   0.0000000), wk =   0.0219780
        k(   47) = (   0.5775445   0.1551876   0.0000000), wk =   0.0219780
        k(   48) = (   0.5775445   0.1441027   0.0000000), wk =   0.0219780
        k(   49) = (   0.5775445   0.1330179   0.0000000), wk =   0.0219780
        k(   50) = (   0.5775445   0.1219331   0.0000000), wk =   0.0219780
        k(   51) = (   0.5775445   0.1108483   0.0000000), wk =   0.0219780
        k(   52) = (   0.5775445   0.0997634   0.0000000), wk =   0.0219780
        k(   53) = (   0.5775445   0.0886786   0.0000000), wk =   0.0219780
        k(   54) = (   0.5775445   0.0775938   0.0000000), wk =   0.0219780
        k(   55) = (   0.5775445   0.0665090   0.0000000), wk =   0.0219780
        k(   56) = (   0.5775445   0.0554241   0.0000000), wk =   0.0219780
        k(   57) = (   0.5775445   0.0443393   0.0000000), wk =   0.0219780
        k(   58) = (   0.5775445   0.0332545   0.0000000), wk =   0.0219780
        k(   59) = (   0.5775445   0.0221697   0.0000000), wk =   0.0219780
        k(   60) = (   0.5775445   0.0110848   0.0000000), wk =   0.0219780
        k(   61) = (   0.5775445   0.0000000   0.0000000), wk =   0.0219780
        k(   62) = (   0.5582930   0.0000000   0.0000000), wk =   0.0219780
        k(   63) = (   0.5390415   0.0000000   0.0000000), wk =   0.0219780
        k(   64) = (   0.5197900   0.0000000   0.0000000), wk =   0.0219780
        k(   65) = (   0.5005385   0.0000000   0.0000000), wk =   0.0219780
        k(   66) = (   0.4812871   0.0000000   0.0000000), wk =   0.0219780
        k(   67) = (   0.4620356   0.0000000   0.0000000), wk =   0.0219780
        k(   68) = (   0.4427841   0.0000000   0.0000000), wk =   0.0219780
        k(   69) = (   0.4235326   0.0000000   0.0000000), wk =   0.0219780
        k(   70) = (   0.4042811   0.0000000   0.0000000), wk =   0.0219780
        k(   71) = (   0.3850296   0.0000000   0.0000000), wk =   0.0219780
        k(   72) = (   0.3657782   0.0000000   0.0000000), wk =   0.0219780
        k(   73) = (   0.3465267   0.0000000   0.0000000), wk =   0.0219780
        k(   74) = (   0.3272752   0.0000000   0.0000000), wk =   0.0219780
        k(   75) = (   0.3080237   0.0000000   0.0000000), wk =   0.0219780
        k(   76) = (   0.2887722   0.0000000   0.0000000), wk =   0.0219780
        k(   77) = (   0.2695208   0.0000000   0.0000000), wk =   0.0219780
        k(   78) = (   0.2502693   0.0000000   0.0000000), wk =   0.0219780
        k(   79) = (   0.2310178   0.0000000   0.0000000), wk =   0.0219780
        k(   80) = (   0.2117663   0.0000000   0.0000000), wk =   0.0219780
        k(   81) = (   0.1925148   0.0000000   0.0000000), wk =   0.0219780
        k(   82) = (   0.1732633   0.0000000   0.0000000), wk =   0.0219780
        k(   83) = (   0.1540119   0.0000000   0.0000000), wk =   0.0219780
        k(   84) = (   0.1347604   0.0000000   0.0000000), wk =   0.0219780
        k(   85) = (   0.1155089   0.0000000   0.0000000), wk =   0.0219780
        k(   86) = (   0.0962574   0.0000000   0.0000000), wk =   0.0219780
        k(   87) = (   0.0770059   0.0000000   0.0000000), wk =   0.0219780
        k(   88) = (   0.0577544   0.0000000   0.0000000), wk =   0.0219780
        k(   89) = (   0.0385030   0.0000000   0.0000000), wk =   0.0219780
        k(   90) = (   0.0192515   0.0000000   0.0000000), wk =   0.0219780
        k(   91) = (   0.0000000   0.0000000   0.0000000), wk =   0.0219780

     Dense  grid:    71529 G-vectors     FFT dimensions: (  32,  32, 180)

     Estimated max dynamical RAM per process >      18.86 MB

     Estimated total dynamical RAM >     301.84 MB

     The potential is recalculated from file :
     ./work/Al2S2.save/charge-density

     Starting wfcs are   32 randomized atomic wfcs +   38 random wfcs
     Checking if some PAW data can be deallocated... 

     Band Structure Calculation
     Davidson diagonalization with overlap
     c_bands:  1 eigenvalues not converged
     c_bands:  1 eigenvalues not converged
     c_bands:  1 eigenvalues not converged
     c_bands:  1 eigenvalues not converged
     c_bands:  1 eigenvalues not converged
     c_bands:  1 eigenvalues not converged
     c_bands:  1 eigenvalues not converged

     ethr =  2.78E-11,  avg # of iterations = 67.4

     total cpu time spent up to now is      283.6 secs

     End of band structure calculation

          k = 0.0000 0.0000 0.0000 (  8957 PWs)   bands (ev):

    -9.7455  -9.7239  -9.6455  -9.6223  -2.2030  -2.1056  -0.2384   0.0656
     2.7129   3.1794   4.1513   4.1576   4.1615   4.1678   4.1801   4.1864
     4.1901   4.1964   7.7025   8.7019  10.5274  10.5521  10.7030  10.7476
    10.9030  11.4723  11.4838  11.4949  11.5064  11.9932  12.0094  12.0165
    12.0327  12.6148  14.1872  14.4641  14.4846  14.5181  14.5387  15.0626
    15.8842  15.9012  15.9853  16.0024  16.3531  16.3713  16.4038  16.4218
    17.6197  18.1942  18.4817  18.7673  18.8152  18.8332  19.1364  19.8454
    20.0749  20.0946  20.2149  20.2343  21.0946  21.1144  21.4778  21.4968
    21.6812  21.8800  22.1431  22.9616  24.5113  24.5309

          k = 0.0193 0.0111 0.0000 (  8963 PWs)   bands (ev):

    -9.7406  -9.7190  -9.6407  -9.6175  -2.1973  -2.1000  -0.2335   0.0701
     2.7158   3.1815   4.1257   4.1320   4.1472   4.1527   4.1535   4.1584
     4.1760   4.1823   7.7114   8.7079  10.5562  10.5814  10.7295  10.7736
    10.8927  11.4635  11.4684  11.4939  11.5034  11.9899  12.0068  12.0199
    12.0362  12.6057  14.1995  14.4081  14.4488  14.4634  14.5044  15.0592
    15.8350  15.8769  15.9736  15.9890  16.3864  16.4124  16.4145  16.4408
    17.6763  18.2518  18.5211  18.7970  18.8337  18.8550  19.1828  19.8823
    20.0698  20.1025  20.2171  20.2431  21.0343  21.0918  21.3591  21.4795
    21.7148  22.0302  22.1437  23.0520  24.4604  24.4893

          k = 0.0385 0.0222 0.0000 (  8981 PWs)   bands (ev):

    -9.7258  -9.7043  -9.6263  -9.6032  -2.1803  -2.0832  -0.2189   0.0837
     2.7239   3.1872   4.0326   4.0388   4.0542   4.0580   4.1234   4.1298
     4.1530   4.1594   7.7373   8.7247  10.6372  10.6625  10.8048  10.8474
    10.8597  11.3676  11.4282  11.5248  11.5366  11.9443  11.9637  12.0697
    12.0840  12.5797  14.2142  14.2374  14.2958  14.3790  14.4480  15.0365
    15.6735  15.8372  15.9365  15.9518  16.4104  16.4642  16.5063  16.5561
    17.8379  18.4065  18.6360  18.8826  18.8848  18.9201  19.3129  19.9732
    20.0257  20.1545  20.2023  20.2982  20.8703  21.0650  21.1537  21.4695
    21.8117  22.1421  22.2961  23.2793  24.3024  24.3947

          k = 0.0578 0.0333 0.0000 (  8983 PWs)   bands (ev):

    -9.7013  -9.6799  -9.6023  -9.5792  -2.1520  -2.0553  -0.1948   0.1063
     2.7361   3.1945   3.8862   3.8912   3.8978   3.8996   4.0847   4.0911
     4.1154   4.1219   7.7776   8.7493  10.7461  10.7540  10.8294  10.9165
    10.9572  11.2221  11.3704  11.5807  11.5984  11.8705  11.8943  12.1618
    12.1645  12.5455  13.9774  14.0858  14.2177  14.2580  14.4014  14.9964
    15.4467  15.7737  15.8776  15.8936  16.4169  16.5553  16.5950  16.7717
    18.0819  18.6181  18.8163  18.9570  19.0177  19.0263  19.5000  19.9676
    20.0414  20.1451  20.2842  20.3833  20.7467  20.9754  21.0367  21.4599
    21.9618  22.1281  22.5897  23.5683  24.1024  24.2372

          k = 0.0770 0.0443 0.0000 (  8981 PWs)   bands (ev):

    -9.6672  -9.6458  -9.5689  -9.5459  -2.1126  -2.0165  -0.1612   0.1375
     2.7495   3.1970   3.6896   3.6929   3.7053   3.7067   4.0301   4.0367
     4.0625   4.0692   7.8299   8.7780  10.6640  10.8611  10.9442  11.0459
    11.0672  11.0840  11.3081  11.6518  11.6894  11.7804  11.8109  12.2399
    12.2996  12.5442  13.7122  13.8717  14.0986  14.1171  14.4191  14.9553
    15.1892  15.6865  15.8028  15.8189  16.4393  16.6450  16.6794  17.0414
    18.3770  18.8385  19.0320  19.0425  19.1598  19.2019  19.7016  19.9211
    19.9880  20.1127  20.4367  20.4841  20.7907  20.8543  21.0353  21.4726
    22.0882  22.1533  22.9004  23.8630  23.9152  24.0271

          k = 0.0963 0.0554 0.0000 (  8983 PWs)   bands (ev):

    -9.6236  -9.6023  -9.5262  -9.5033  -2.0622  -1.9669  -0.1185   0.1770
     2.7565   3.1704   3.4468   3.4536   3.4957   3.5217   3.9592   3.9660
     3.9940   4.0008   7.8918   8.8080  10.5177  10.7724  11.0799  11.0859
    11.1708  11.2035  11.2424  11.6879  11.7137  11.7299  11.8038  12.2238
    12.4828  12.6681  13.4674  13.6653  13.9447  13.9847  14.4596  14.9202
    14.9274  15.5745  15.7022  15.7526  16.4779  16.7266  16.7473  17.3393
    18.6869  19.0225  19.0906  19.2692  19.2703  19.4315  19.8809  19.9190
    19.9314  20.1090  20.5873  20.6232  20.7506  20.9144  21.1516  21.5662
    22.0147  22.3706  23.2276  23.7764  23.7909  24.1241

          k = 0.1155 0.0665 0.0000 (  8987 PWs)   bands (ev):

    -9.5707  -9.5495  -9.4744  -9.4517  -2.0011  -1.9068  -0.0669   0.2244
     2.7363   3.0450   3.1775   3.1881   3.2937   3.4158   3.8717   3.8788
     3.9096   3.9167   7.9618   8.8370  10.3395  10.5599  11.1307  11.2024
    11.2335  11.2614  11.2828  11.6177  11.6808  11.7198  11.9235  12.1296
    12.6999  12.9048  13.2671  13.4493  13.8716  13.8897  14.4974  14.6861
    14.8903  15.4372  15.5796  15.7085  16.5277  16.7900  16.7964  17.6398
    18.9243  19.1292  19.1588  19.3287  19.4140  19.6387  20.0158  20.0428
    20.0811  20.2024  20.6302  20.6816  20.8097  20.9722  21.4222  21.8041
    21.9248  22.5861  23.5326  23.5718  23.7216  23.8877

          k = 0.1348 0.0776 0.0000 (  8985 PWs)   bands (ev):

    -9.5087  -9.4876  -9.4138  -9.3913  -1.9297  -1.8367  -0.0070   0.2787
     2.6402   2.8141   2.8910   2.9059   3.1563   3.4024   3.7674   3.7749
     3.8092   3.8166   8.0388   8.8633  10.1410  10.3287  11.0144  11.2761
    11.2872  11.3121  11.3462  11.6060  11.6337  11.7008  12.0094  12.0279
    12.9167  13.0958  13.2015  13.2143  13.8982  13.9287  14.4969  14.5332
    14.8666  15.2785  15.4460  15.6943  16.5799  16.8014  16.8536  17.9110
    18.9109  19.1805  19.2580  19.4511  19.5595  19.7328  20.2126  20.2435
    20.3838  20.4611  20.4945  20.7566  20.9348  20.9751  21.8061  21.8830
    22.1551  22.7407  23.2621  23.7341  23.7376  23.9313

          k = 0.1540 0.0887 0.0000 (  8993 PWs)   bands (ev):

    -9.4380  -9.4171  -9.3446  -9.3223  -1.8484  -1.7571   0.0604   0.3389
     2.4427   2.5424   2.5948   2.6149   3.1160   3.4232   3.6465   3.6549
     3.6929   3.7007   8.1220   8.8854   9.9295  10.0912  10.8462  11.2228
    11.2338  11.3363  11.4624  11.5339  11.6156  11.7799  11.9160  12.1131
    12.9197  12.9754  13.0702  13.5245  14.0147  14.0949  14.4025  14.5936
    14.8627  15.1078  15.3225  15.7193  16.6202  16.7771  16.9048  18.1180
    18.7889  19.2959  19.3244  19.4461  19.7586  19.9070  20.3074  20.4472
    20.4609  20.7190  20.7519  20.8444  21.0047  21.0195  21.9654  22.2571
    22.5650  22.7693  22.9634  23.7926  23.8193  24.3001

          k = 0.1733 0.0998 0.0000 (  8989 PWs)   bands (ev):

    -9.3589  -9.3383  -9.2674  -9.2453  -1.7579  -1.6687   0.1342   0.4030
     2.1884   2.2578   2.2953   2.3223   3.1331   3.4511   3.5095   3.5236
     3.5611   3.5693   8.2101   8.9018   9.7095   9.8508  10.6364  11.1308
    11.1491  11.1627  11.5318  11.5803  11.6044  11.8847  11.9318  12.1899
    12.7362  12.7485  13.1014  13.8324  14.1270  14.2801  14.4079  14.7561
    14.9341  14.9458  15.2620  15.7953  16.6307  16.7164  16.9654  18.2502
    18.6771  19.3521  19.4337  19.4972  19.7748  20.1751  20.2737  20.5500
    20.6518  20.7123  20.7601  21.2023  21.2150  21.3460  22.1514  22.6221
    22.7444  22.7641  23.0054  23.9569  24.0169  24.1829

          k = 0.1925 0.1108 0.0000 (  9007 PWs)   bands (ev):

    -9.2719  -9.2515  -9.1824  -9.1607  -1.6592  -1.5728   0.2127   0.4677
     1.9148   1.9715   1.9983   2.0355   3.1732   3.3572   3.3592   3.4144
     3.4230   3.5033   8.3019   8.9108   9.4835   9.6083  10.3963  10.8558
    11.0769  11.0932  11.3767  11.7019  11.7197  12.0004  12.0264  12.2654
    12.5485  12.5598  13.0274  14.0479  14.1364  14.3549  14.3974  14.8458
    15.0730  15.1748  15.3620  15.9393  16.6030  16.6227  17.0467  18.3344
    18.5990  19.3302  19.4230  19.7469  19.8016  20.0503  20.4581  20.5667
    20.6944  20.7276  20.8920  21.5186  21.5783  21.7763  22.3217  22.3785
    22.7888  23.2409  23.4578  23.9943  24.1379  24.3104

          k = 0.2118 0.1219 0.0000 (  9005 PWs)   bands (ev):

    -9.1776  -9.1574  -9.0903  -9.0689  -1.5534  -1.4707   0.2926   0.5264
     1.6387   1.6905   1.7104   1.7642   3.1695   3.1920   3.2480   3.2541
     3.2629   3.5430   8.3950   8.9105   9.2523   9.3637  10.1382  10.5663
    11.0092  11.0321  11.2090  11.8274  11.8446  12.1221  12.1487  12.2975
    12.4041  12.4313  12.9096  14.0653  14.0670  14.2864  14.3163  14.8878
    15.4892  15.5606  15.6444  16.1690  16.5033  16.5455  17.1478  18.4018
    18.5554  19.2530  19.4147  19.8398  19.8520  20.1117  20.4218  20.4422
    20.5687  21.0949  21.1503  21.8033  21.8496  22.0987  22.1626  22.6363
    22.9725  23.7017  23.7304  23.9814  24.2321  24.4012

          k = 0.2310 0.1330 0.0000 (  9013 PWs)   bands (ev):

    -9.0764  -9.0566  -8.9917  -8.9706  -1.4427  -1.3649   0.3667   0.5652
     1.3694   1.4210   1.4411   1.5248   2.9994   3.0112   3.0805   3.0902
     3.2970   3.5845   8.4862   8.8991   9.0167   9.1167   9.8721  10.2773
    10.9284  10.9815  11.0695  11.9490  11.9700  12.2032  12.2454  12.2831
    12.2852  12.4927  12.7931  13.9257  13.9460  14.1128  14.2239  15.0245
    15.9465  16.0018  16.0237  16.3796  16.4768  16.4892  17.2643  18.4691
    18.5411  19.1320  19.4061  19.7782  19.8807  20.3689  20.3751  20.3823
    20.3980  21.4169  21.4489  21.6595  22.1590  22.1784  22.4016  22.9635
    23.3319  23.5661  24.0227  24.2205  24.4254  24.6542

          k = 0.2503 0.1441 0.0000 (  9021 PWs)   bands (ev):

    -8.9693  -8.9498  -8.8872  -8.8667  -1.3299  -1.2587   0.4180   0.5561
     1.1142   1.1689   1.2093   1.3472   2.8071   2.8181   2.8961   2.9063
     3.3585   3.6245   8.5706   8.7772   8.8673   8.8753   9.6058   9.9964
    10.8066  10.9412  10.9980  12.0035  12.0581  12.1839  12.2392  12.3594
    12.4324  12.5941  12.7087  13.7245  13.7943  13.9163  14.1081  15.1664
    16.1454  16.2721  16.4242  16.5494  16.5722  16.8802  17.3938  18.5424
    18.5506  19.0017  19.3943  19.7197  19.9145  20.1971  20.3517  20.3570
    20.6526  21.4362  21.6843  21.7355  22.2708  22.4847  22.4949  23.3105
    23.4364  23.8027  24.1204  24.3250  24.8895  24.9406

          k = 0.2695 0.1552 0.0000 (  8995 PWs)   bands (ev):

    -8.8569  -8.8379  -8.7779  -8.7578  -1.2196  -1.1573   0.4074   0.4665
     0.8806   0.9418   1.0558   1.2654   2.6038   2.6149   2.7022   2.7129
     3.4208   3.6608   8.5349   8.6160   8.6417   8.8384   9.3455   9.7284
    10.6799  10.9096  10.9677  11.9584  12.0479  12.3016  12.3358  12.4300
    12.5890  12.6977  12.6992  13.5080  13.6205  13.7190  13.9881  15.2909
    15.9846  16.2122  16.7807  16.9984  17.0709  17.3057  17.5368  18.5803
    18.6249  18.9190  19.3779  19.6960  19.9349  19.9897  20.3673  20.3762
    20.9156  21.2495  21.9038  21.9369  22.3691  22.4708  22.7954  23.4139
    23.5900  24.0783  24.3214  24.5436  25.2333  25.3472

          k = 0.2888 0.1663 0.0000 (  8983 PWs)   bands (ev):

    -8.7404  -8.7219  -8.6646  -8.6451  -1.1190  -1.0688   0.2969   0.3040
     0.6778   0.7493   1.0195   1.2730   2.3921   2.4034   2.5005   2.5118
     3.4806   3.6914   8.2910   8.3638   8.6916   8.7888   9.0962   9.4765
    10.5817  10.8836  10.9525  11.9191  12.0248  12.4364  12.4500  12.4874
    12.7539  12.7803  12.7954  13.2957  13.4337  13.5376  13.8839  15.3986
    15.7957  16.0923  17.0162  17.4623  17.5859  17.7096  17.7179  18.6304
    18.7209  18.9574  19.3508  19.7083  19.8139  19.9430  20.4172  20.4298
    21.1163  21.1681  21.9329  22.1597  22.4054  22.4565  23.0777  23.5217
    23.7953  23.9758  24.7139  24.8449  25.4659  25.6397

          k = 0.3080 0.1774 0.0000 (  8981 PWs)   bands (ev):

    -8.6208  -8.6029  -8.5484  -8.5296  -1.0389  -1.0040   0.1072   0.1180
     0.5183   0.6038   1.0700   1.3317   2.1741   2.1858   2.2931   2.3049
     3.5353   3.7146   8.0466   8.1119   8.7127   8.7283   8.8625   9.2435
    10.5268  10.8587  10.9414  11.9055  12.0259  12.4256  12.5968  12.6536
    12.8730  12.8962  12.9234  13.1039  13.2433  13.3946  13.8205  15.4916
    15.5949  15.9523  17.0789  17.7652  18.0192  18.0518  18.0803  18.7059
    18.8436  19.1503  19.2598  19.7530  19.7836  19.9567  20.5004  20.5160
    21.0382  21.4133  21.8663  22.3189  22.3440  22.5282  23.3379  23.7156
    23.8496  23.9455  24.6881  25.3113  25.6890  25.8116

          k = 0.3273 0.1884 0.0000 (  8973 PWs)   bands (ev):

    -8.4995  -8.4823  -8.4307  -8.4127  -0.9927  -0.9750  -0.0958  -0.0811
     0.4170   0.5187   1.1593   1.4141   1.9518   1.9639   2.0817   2.0944
     3.5825   3.7285   7.8031   7.8618   8.6487   8.6601   8.7017   9.0315
    10.5202  10.8286  10.9268  11.9166  12.0549  12.4222  12.7013  12.8167
    12.9199  12.9516  12.9831  13.0684  13.1200  13.3361  13.8206  15.3886
    15.5696  15.7966  16.9999  17.9427  18.2467  18.3721  18.4971  18.8296
    19.0336  19.0726  19.3876  19.8242  19.9979  20.0537  20.5796  20.6784
    21.0078  21.6545  21.7661  22.2255  22.4881  22.5739  23.5644  23.7097
    23.9362  24.0194  24.6185  25.5292  25.8131  25.8774

          k = 0.3465 0.1995 0.0000 (  8979 PWs)   bands (ev):

    -8.3778  -8.3614  -8.3129  -8.2957  -0.9908  -0.9883  -0.2915  -0.2768
     0.3854   0.5012   1.2639   1.5052   1.7271   1.7396   1.8690   1.8835
     3.6200   3.7319   7.5617   7.6149   8.4585   8.5884   8.6618   8.8419
    10.5538  10.7850  10.9062  11.9463  12.1095  12.4283  12.7128  12.7947
    12.8222  12.9992  13.0688  13.0839  13.3046  13.4059  13.8855  15.1847
    15.6282  15.6305  16.8449  18.1045  18.3051  18.5829  18.7623  18.8542
    19.0386  19.3431  19.4675  19.9174  20.3603  20.3989  20.6686  20.9233
    21.0129  21.6706  21.8935  22.1261  22.5771  22.6026  23.5443  23.7256
    23.9778  24.1510  24.6410  25.3468  25.5478  25.8951

          k = 0.3658 0.2106 0.0000 (  8965 PWs)   bands (ev):

    -8.2576  -8.2420  -8.1965  -8.1804  -1.0386  -1.0313  -0.4725  -0.4590
     0.4222   0.5468   1.3699   1.5019   1.5148   1.5773   1.6605   1.6946
     3.6458   3.7242   7.3237   7.3730   8.2948   8.5181   8.6019   8.6754
    10.5933  10.7198  10.8980  11.9832  12.1820  12.4442  12.6719  12.6766
    12.7147  13.0013  13.2477  13.2550  13.4978  13.5509  13.9915  14.9965
    15.4503  15.6721  16.6595  18.2601  18.2657  18.6597  18.6668  18.9178
    19.2791  19.4060  19.6908  20.0387  20.6562  20.8948  20.9182  21.0478
    21.2586  21.5975  22.0107  22.1261  22.5153  22.7008  23.3451  23.7554
    23.8661  24.3586  24.7356  25.0717  25.2779  25.7016

          k = 0.3850 0.2217 0.0000 (  8962 PWs)   bands (ev):

    -8.1405  -8.1259  -8.0834  -8.0684  -1.1113  -1.0994  -0.6342  -0.6223
     0.5131   0.6409   1.2779   1.2912   1.3954   1.4356   1.5345   1.7196
     3.6589   3.7055   7.0905   7.1374   8.1591   8.4542   8.5319   8.5331
    10.5704  10.6274  10.9575  12.0085  12.2458  12.4753  12.5656  12.6400
    12.6869  13.0325  13.4341  13.4479  13.6948  13.7211  14.1007  14.8523
    15.2667  15.6928  16.4690  18.1342  18.4022  18.5431  18.6841  19.0283
    19.2845  19.4928  19.9372  20.2254  20.7184  21.0583  21.4275  21.4706
    21.5127  21.7011  21.8690  22.3291  22.3675  22.7219  23.2170  23.6159
    23.7567  24.5699  24.8213  24.8292  25.0673  25.5465

          k = 0.4043 0.2328 0.0000 (  8962 PWs)   bands (ev):

    -8.0284  -8.0150  -7.9754  -7.9615  -1.1904  -1.1775  -0.7733  -0.7631
     0.6397   0.7666   1.0573   1.0711   1.2095   1.2286   1.6199   1.8083
     3.6592   3.6770   6.8642   6.9099   8.0516   8.4017   8.4100   8.4657
    10.4691  10.5070  11.0937  12.0027  12.2294  12.5284  12.5744  12.6564
    12.7087  13.0949  13.5970  13.6540  13.8916  13.8998  14.1665  14.8066
    15.0819  15.6945  16.2887  17.9356  18.4973  18.5090  18.6771  19.1093
    19.1331  19.6826  20.0517  20.4556  20.7149  21.0721  21.4547  21.6446
    22.0063  22.0416  22.1394  22.1605  22.3284  22.6692  23.3768  23.3844
    23.6950  24.6629  24.7832  24.8264  24.9191  25.4880

          k = 0.4235 0.2439 0.0000 (  8940 PWs)   bands (ev):

    -7.9234  -7.9113  -7.8743  -7.8618  -1.2637  -1.2514  -0.8873  -0.8787
     0.7752   0.8427   0.8534   0.9236   1.0042   1.0215   1.7232   1.8943
     3.6409   3.6478   6.6466   6.6924   7.9709   8.3072   8.3652   8.4079
    10.3228  10.3622  11.2727  11.9649  12.1447  12.6055  12.6946  12.7302
    12.7724  13.1802  13.6910  13.8610  14.0767  14.0857  14.2013  14.8911
    14.9013  15.6827  16.1298  17.7160  18.4671  18.5221  18.7184  18.9644
    19.1588  19.8604  20.0806  20.6350  20.6504  21.0242  21.3556  21.4349
    21.8637  22.0191  22.5061  22.6291  22.6437  22.8186  23.1666  23.7248
    23.7291  24.5854  24.7690  24.8189  24.9902  25.5761

          k = 0.4428 0.2550 0.0000 (  8914 PWs)   bands (ev):

    -7.8274  -7.8166  -7.7820  -7.7709  -1.3223  -1.3114  -0.9742  -0.9672
     0.6226   0.6391   0.8014   0.8186   0.9533   1.0694   1.8217   1.9725
     3.6008   3.6270   6.4403   6.4871   7.9142   8.2207   8.3484   8.3663
    10.1522  10.1991  11.4759  11.9137  12.0573  12.7014  12.8420  12.8618
    12.8679  13.2808  13.6633  14.0599  14.2494  14.2658  14.3033  14.7336
    15.0611  15.6678  16.0012  17.4981  18.3489  18.5577  18.7558  18.7852
    19.1731  19.9923  20.0319  20.4447  20.8031  20.8468  21.2257  21.2298
    21.6624  21.7271  22.9024  23.0056  23.0278  23.1323  23.1912  23.9122
    24.1455  24.5887  24.7369  24.7694  25.1803  25.7319

          k = 0.4620 0.2660 0.0000 (  8926 PWs)   bands (ev):

    -7.7422  -7.7329  -7.7002  -7.6906  -1.3609  -1.3517  -1.0326  -1.0271
     0.4199   0.4362   0.6045   0.6221   1.1115   1.2205   1.9114   2.0404
     3.5610   3.6007   6.2481   6.2964   7.8775   8.1472   8.3454   8.3548
     9.9687  10.0239  11.6940  11.8677  11.9880  12.8041  12.9572  12.9850
    13.0547  13.3939  13.5774  14.2220  14.4095  14.4240  14.4683  14.6075
    15.2699  15.6635  15.9100  17.2925  18.1915  18.5895  18.5989  18.7140
    19.1516  19.7554  20.1432  20.1814  20.5423  20.9381  21.0631  21.1219
    21.5564  21.5711  23.0297  23.1416  23.2038  23.5336  23.7058  24.2783
    24.4679  24.6693  24.7726  24.8792  25.3396  25.9110

          k = 0.4813 0.2771 0.0000 (  8916 PWs)   bands (ev):

    -7.6693  -7.6615  -7.6302  -7.6222  -1.3764  -1.3691  -1.0621  -1.0580
     0.2258   0.2424   0.4158   0.4341   1.2630   1.3613   1.9901   2.0967
     3.5267   3.5732   6.0731   6.1235   7.8565   8.0834   8.3487   8.3865
     9.7798   9.8423  11.8389  11.9198  11.9422  12.8960  13.0059  13.1137
    13.2660  13.5232  13.5525  14.2518  14.5454  14.5547  14.6161  14.6482
    15.4961  15.6834  15.8583  17.1076  18.0044  18.4065  18.5649  18.5758
    19.0918  19.3976  19.7832  20.2266  20.3172  20.9204  21.0653  21.1082
    21.5049  21.5345  23.0939  23.2900  23.4110  23.8644  24.1249  24.5126
    24.6517  24.8394  24.9590  25.2871  25.4458  26.0964

          k = 0.5005 0.2882 0.0000 (  8922 PWs)   bands (ev):

    -7.6097  -7.6035  -7.5730  -7.5667  -1.3683  -1.3626  -1.0635  -1.0605
     0.0437   0.0610   0.2380   0.2572   1.3993   1.4831   2.0565   2.1403
     3.5026   3.5491   5.9194   5.9720   7.8468   8.0269   8.3781   8.4452
     9.5908   9.6584  11.8342  11.9201  12.1460  12.9342  12.9582  13.2456
    13.4886  13.6621  13.6767  14.1648  14.6286  14.6735  14.7407  14.8127
    15.7286  15.7316  15.8396  16.9539  17.7781  18.2090  18.3401  18.4601
    18.8952  19.1058  19.4257  20.0142  20.4507  20.7829  21.1555  21.1896
    21.5109  21.5502  23.2005  23.4095  23.6266  24.0943  24.4174  24.4638
    24.8301  25.0849  25.4003  25.4719  25.7562  26.2801

          k = 0.5198 0.2993 0.0000 (  8926 PWs)   bands (ev):

    -7.5641  -7.5594  -7.5293  -7.5245  -1.3389  -1.3346  -1.0400  -1.0377
    -0.1215  -0.1033   0.0752   0.0956   1.5127   1.5783   2.1096   2.1709
     3.4919   3.5321   5.7914   5.8463   7.8448   7.9765   8.4336   8.5314
     9.4065   9.4757  11.8560  11.9192  12.3637  12.7983  12.9791  13.3716
    13.7015  13.8585  13.8598  14.0879  14.6723  14.7625  14.8594  14.9322
    15.7920  15.8373  15.9608  16.8455  17.4945  18.0121  18.1192  18.2281
    18.5162  19.0052  19.1190  19.9543  20.5942  20.6446  21.1791  21.3204
    21.4867  21.6802  23.3254  23.5173  23.8436  24.2307  24.3688  24.6280
    24.9608  25.3070  25.3956  25.8855  26.1783  26.4583

          k = 0.5390 0.3104 0.0000 (  8934 PWs)   bands (ev):

    -7.5324  -7.5292  -7.4989  -7.4957  -1.2952  -1.2921  -0.9987  -0.9967
    -0.2619  -0.2427  -0.0650  -0.0433   1.5977   1.6421   2.1494   2.1889
     3.4942   3.5230   5.6946   5.7517   7.8481   7.9322   8.5122   8.6444
     9.2324   9.2970  11.9014  11.9340  12.5605  12.6519  12.9593  13.4835
    13.8132  14.0698  14.0950  14.1431  14.6872  14.8032  14.9154  14.9691
    15.8317  15.8360  16.1871  16.7947  17.1687  17.8362  17.9504  17.9604
    18.1843  18.8938  18.9347  20.0093  20.5061  20.7446  21.1494  21.4573
    21.4607  21.8489  23.4520  23.6106  23.9929  24.2870  24.2999  24.8089
    25.0842  25.2138  25.4133  26.3158  26.5048  26.6330

          k = 0.5583 0.3215 0.0000 (  8928 PWs)   bands (ev):

    -7.5141  -7.5122  -7.4813  -7.4794  -1.2514  -1.2494  -0.9545  -0.9527
    -0.3630  -0.3427  -0.1682  -0.1449   1.6516   1.6735   2.1762   2.1951
     3.5047   3.5192   5.6340   5.6930   7.8561   7.8956   8.6019   8.7812
     9.0816   9.1258  11.9552  11.9568  12.5280  12.7213  12.9071  13.5708
    13.8020  14.2966  14.3529  14.3612  14.6817  14.7644  14.8639  14.8848
    15.8204  15.8438  16.4050  16.7898  16.8596  17.7129  17.7314  17.8764
    17.9657  18.7605  18.8847  20.1204  20.3710  20.8892  21.0880  21.4379
    21.5609  22.0014  23.5727  23.6781  23.8756  24.3291  24.4375  24.9602
    24.9744  25.1934  25.3848  26.6264  26.6647  26.6958

          k = 0.5775 0.3325 0.0000 (  8918 PWs)   bands (ev):

    -7.5083  -7.5070  -7.4757  -7.4745  -1.2309  -1.2296  -0.9328  -0.9313
    -0.4022  -0.3815  -0.2092  -0.1851   1.6756   1.6758   2.1907   2.1909
     3.5140   3.5155   5.6136   5.6733   7.8691   7.8713   8.6541   8.9010
     9.0017   9.0024  11.9760  11.9773  12.4731  12.8314  12.8332  13.6110
    13.7886  14.4742  14.5823  14.5843  14.6642  14.6682  14.7046  14.7162
    15.8247  15.8266  16.6106  16.6193  16.7924  17.6577  17.6612  17.8665
    17.8765  18.7167  18.8654  20.2437  20.2455  21.0037  21.0087  21.4279
    21.5996  22.0728  23.6901  23.7047  23.7052  24.3378  24.6782  24.6972
    25.0836  25.2752  25.2764  26.6443  26.6458  26.8011

          k = 0.5775 0.3215 0.0000 (  8922 PWs)   bands (ev):

    -7.5096  -7.5081  -7.4769  -7.4755  -1.2373  -1.2357  -0.9398  -0.9380
    -0.3913  -0.3706  -0.1976  -0.1737   1.6679   1.6779   2.1853   2.1940
     3.5103   3.5171   5.6185   5.6780   7.8634   7.8806   8.6375   8.8554
     9.0175   9.0564  11.9575  11.9828  12.4886  12.7893  12.8664  13.5949
    13.7918  14.3890  14.4530  14.4716  14.6603  14.7418  14.8136  14.8183
    15.8157  15.8424  16.5204  16.7183  16.7939  17.6572  17.6932  17.8639
    17.9036  18.7277  18.8708  20.1875  20.3013  20.9603  21.0379  21.4308
    21.5908  22.0473  23.6495  23.6962  23.7715  24.3336  24.5588  24.8250
    25.0253  25.2848  25.3031  26.6430  26.6613  26.7462

          k = 0.5775 0.3104 0.0000 (  8928 PWs)   bands (ev):

    -7.5134  -7.5115  -7.4805  -7.4788  -1.2556  -1.2530  -0.9595  -0.9568
    -0.3598  -0.3395  -0.1643  -0.1409   1.6551   1.6745   2.1777   2.1949
     3.5034   3.5163   5.6331   5.6916   7.8615   7.8939   8.5938   8.7827
     9.0674   9.1446  11.9194  11.9848  12.5309  12.7436  12.8867  13.5506
    13.7987  14.2394  14.2727  14.3061  14.6631  14.8528  14.9535  14.9548
    15.8089  15.8701  16.4450  16.8057  16.8120  17.6676  17.7569  17.8796
    17.9482  18.7581  18.8877  20.1341  20.3511  20.9077  21.0447  21.4412
    21.5737  21.9814  23.6503  23.6718  23.8458  24.3090  24.4660  24.9058
    24.9507  25.3194  25.3293  26.6527  26.6558  26.6958

          k = 0.5775 0.2993 0.0000 (  8936 PWs)   bands (ev):

    -7.5194  -7.5171  -7.4864  -7.4841  -1.2843  -1.2805  -0.9901  -0.9861
    -0.3094  -0.2894  -0.1115  -0.0888   1.6382   1.6663   2.1683   2.1934
     3.4934   3.5119   5.6564   5.7132   7.8653   7.9108   8.5359   8.7081
     9.1387   9.2407  11.8683  11.9823  12.5927  12.6960  12.8931  13.4767
    13.7918  14.0619  14.0741  14.1418  14.6733  14.9675  15.0933  15.0984
    15.8107  15.9081  16.3818  16.8336  16.8988  17.6858  17.8438  17.9082
    18.0086  18.8064  18.9167  20.0864  20.3907  20.8510  21.0129  21.4596
    21.5603  21.8824  23.6309  23.6906  23.9279  24.2401  24.4244  24.7626
    25.0704  25.3237  25.3749  26.5583  26.6647  26.6814

          k = 0.5775 0.2882 0.0000 (  8934 PWs)   bands (ev):

    -7.5275  -7.5247  -7.4942  -7.4914  -1.3210  -1.3161  -1.0287  -1.0234
    -0.2427  -0.2230  -0.0422  -0.0201   1.6181   1.6540   2.1573   2.1900
     3.4802   3.5037   5.6874   5.7414   7.8759   7.9322   8.4719   8.6344
     9.2225   9.3413  11.8093  11.9748  12.6472  12.6653  12.8849  13.3771
    13.7119  13.8670  13.8675  14.0467  14.6879  15.0773  15.2286  15.2448
    15.8260  15.9575  16.3301  16.8800  16.9769  17.7087  17.9441  17.9480
    18.0825  18.8711  18.9572  20.0457  20.4186  20.7899  20.9374  21.4858
    21.5591  21.7634  23.5734  23.7625  24.0067  24.1519  24.4181  24.6095
    25.1786  25.3149  25.4123  26.4222  26.5930  26.6524

          k = 0.5775 0.2771 0.0000 (  8930 PWs)   bands (ev):

    -7.5373  -7.5340  -7.5036  -7.5003  -1.3635  -1.3575  -1.0727  -1.0662
    -0.1626  -0.1430   0.0407   0.0621   1.5955   1.6386   2.1449   2.1847
     3.4638   3.4916   5.7245   5.7745   7.8942   7.9588   8.4060   8.5625
     9.3141   9.4445  11.7461  11.9623  12.5976  12.7379  12.8585  13.2612
    13.5321  13.6624  13.6631  14.0529  14.7020  15.1769  15.3544  15.3917
    15.8590  16.0202  16.2927  16.9448  17.0449  17.7338  17.9864  18.0613
    18.1670  18.9499  19.0079  20.0136  20.4345  20.7244  20.8237  21.5179
    21.5697  21.6386  23.4998  23.8568  23.9831  24.1627  24.4246  24.4544
    25.2654  25.2910  25.4382  26.2755  26.4754  26.6566

          k = 0.5775 0.2660 0.0000 (  8920 PWs)   bands (ev):

    -7.5486  -7.5448  -7.5145  -7.5107  -1.4096  -1.4027  -1.1199  -1.1124
    -0.0714  -0.0519   0.1344   0.1555   1.5713   1.6208   2.1314   2.1778
     3.4444   3.4760   5.7661   5.8107   7.9213   7.9917   8.3401   8.4927
     9.4104   9.5492  11.6808  11.9450  12.5475  12.7898  12.8049  13.1459
    13.3093  13.4518  13.4837  14.1073  14.7107  15.2618  15.4616  15.5380
    15.9130  16.0988  16.2765  17.0262  17.1019  17.7587  18.0285  18.1830
    18.2587  19.0407  19.0665  19.9919  20.4393  20.6550  20.6831  21.5207
    21.5530  21.5868  23.4115  23.8691  23.9655  24.2603  24.3036  24.4393
    25.2500  25.3127  25.4524  26.1450  26.3578  26.6677

          k = 0.5775 0.2550 0.0000 (  8916 PWs)   bands (ev):

    -7.5612  -7.5570  -7.5267  -7.5225  -1.4577  -1.4501  -1.1688  -1.1604
     0.0287   0.0482   0.2373   0.2581   1.5462   1.6015   2.1169   2.1695
     3.4222   3.4572   5.8105   5.8481   7.9582   8.0316   8.2751   8.4250
     9.5094   9.6536  11.6144  11.9231  12.4970  12.7099  12.7772  13.0525
    13.0717  13.2406  13.3745  14.1842  14.7110  15.3293  15.5382  15.6823
    15.9889  16.1951  16.2925  17.1220  17.1476  17.7812  18.0675  18.3091
    18.3536  19.1302  19.1411  19.9825  20.4345  20.5276  20.5838  21.4193
    21.5870  21.6055  23.3104  23.7389  24.0811  24.1627  24.3523  24.4760
    25.1892  25.2947  25.4559  26.0620  26.2456  26.6084

          k = 0.5775 0.2439 0.0000 (  8912 PWs)   bands (ev):

    -7.5749  -7.5702  -7.5399  -7.5352  -1.5067  -1.4985  -1.2182  -1.2091
     0.1358   0.1554   0.3476   0.3683   1.5210   1.5813   2.1017   2.1601
     3.3978   3.4357   5.8557   5.8848   8.0057   8.0796   8.2117   8.3596
     9.6088   9.7558  11.5471  11.8966  12.4455  12.5734  12.6624  12.8289
    12.9887  13.0334  13.3742  14.2759  14.7019  15.3785  15.5740  15.8233
    16.0858  16.3090  16.3498  17.1822  17.2296  17.7991  18.0990  18.4372
    18.4466  19.1964  19.2486  19.9876  20.3682  20.4221  20.5150  21.3413
    21.6154  21.6226  23.1988  23.5996  24.0366  24.1957  24.3938  24.5672
    25.1067  25.2020  25.4506  26.0398  26.1425  26.4243

          k = 0.5775 0.2328 0.0000 (  8922 PWs)   bands (ev):

    -7.5894  -7.5843  -7.5539  -7.5488  -1.5557  -1.5469  -1.2673  -1.2576
     0.2485   0.2682   0.4642   0.4848   1.4964   1.5611   2.0860   2.1498
     3.3716   3.4120   5.9002   5.9192   8.0645   8.1362   8.1502   8.2966
     9.7061   9.8532  11.4789  11.8650  12.3914  12.4121  12.4792  12.5862
    12.8366  12.9444  13.4507  14.3791  14.6841  15.4108  15.5701  15.9591
    16.2011  16.4385  16.4474  17.2062  17.3464  17.8103  18.1190  18.5308
    18.5650  19.2629  19.3607  20.0092  20.2162  20.4044  20.4542  21.2901
    21.6340  21.6363  23.0795  23.4524  23.9298  24.2960  24.3999  24.6917
    25.0016  25.0641  25.4388  26.0430  26.0502  26.2211

          k = 0.5775 0.2217 0.0000 (  8918 PWs)   bands (ev):

    -7.6045  -7.5991  -7.5686  -7.5631  -1.6041  -1.5949  -1.3155  -1.3053
     0.3651   0.3847   0.5860   0.6066   1.4734   1.5420   2.0700   2.1389
     3.3441   3.3867   5.9423   5.9500   8.0908   8.1348   8.2020   8.2359
     9.7982   9.9424  11.4087  11.8264  12.2421  12.2706  12.3302  12.3489
    12.6593  12.9098  13.5630  14.4917  14.6593  15.4288  15.5361  16.0875
    16.3320  16.5732  16.5830  17.2189  17.4701  17.8133  18.1257  18.5966
    18.6903  19.3280  19.4751  20.0489  20.0844  20.3839  20.4070  21.2670
    21.6395  21.6456  22.9553  23.2981  23.8452  24.3524  24.3894  24.8243
    24.8749  24.9352  25.4229  25.9535  25.9680  26.0152

          k = 0.5775 0.2106 0.0000 (  8912 PWs)   bands (ev):

    -7.6201  -7.6143  -7.5836  -7.5778  -1.6514  -1.6418  -1.3625  -1.3518
     0.4839   0.5033   0.7120   0.7327   1.4534   1.5250   2.0539   2.1275
     3.3157   3.3603   5.9759   5.9811   8.0338   8.1776   8.2165   8.2773
     9.8807  10.0189  11.3344  11.7730  12.0568  12.0759  12.1269  12.2535
    12.5163  12.8804  13.6929  14.6116  14.6290  15.4350  15.4824  16.2060
    16.4755  16.7195  16.7367  17.2181  17.5980  17.8067  18.1215  18.6319
    18.8107  19.3908  19.5900  19.9874  20.1079  20.3632  20.3775  21.2720
    21.6305  21.6498  22.8291  23.1377  23.7836  24.3109  24.3643  24.7293
    24.8827  24.9563  25.4046  25.7657  25.8103  25.8937

          k = 0.5775 0.1995 0.0000 (  8920 PWs)   bands (ev):

    -7.6359  -7.6298  -7.5990  -7.5928  -1.6972  -1.6873  -1.4079  -1.3969
     0.6029   0.6213   0.8415   0.8623   1.4381   1.5117   2.0380   2.1159
     3.2869   3.3331   5.9969   6.0151   7.9791   8.1217   8.3092   8.3618
     9.9482  10.0768  11.2519  11.6790  11.8520  11.9213  11.9485  12.1555
    12.4196  12.8544  13.8328  14.5949  14.7364  15.4169  15.4319  16.3120
    16.6290  16.8773  16.8986  17.1988  17.7277  17.7903  18.1146  18.6255
    18.9238  19.4496  19.7045  19.9389  20.1851  20.3455  20.3675  21.3041
    21.6076  21.6486  22.7038  22.9722  23.7433  24.1652  24.3238  24.5680
    24.9167  25.0808  25.3848  25.5633  25.6096  25.8239

          k = 0.5775 0.1884 0.0000 (  8920 PWs)   bands (ev):

    -7.6518  -7.6454  -7.6144  -7.6078  -1.7414  -1.7311  -1.4515  -1.4402
     0.7192   0.7355   0.9735   0.9944   1.4305   1.5044   2.0226   2.1044
     3.2580   3.3058   6.0124   6.0441   7.9269   8.0682   8.4118   8.4553
     9.9935  10.1097  11.1539  11.5155  11.6664  11.7887  11.8445  12.0520
    12.3612  12.8315  13.9791  14.5580  14.8610  15.3473  15.4210  16.4035
    16.7904  17.0421  17.0661  17.1545  17.7646  17.8558  18.1181  18.5745
    19.0273  19.5012  19.8184  19.9437  20.2781  20.3341  20.3779  21.3610
    21.5737  21.6414  22.5825  22.8031  23.7195  23.9685  24.2664  24.3940
    24.9760  25.1893  25.3504  25.3722  25.4307  25.7555

          k = 0.5775 0.1774 0.0000 (  8924 PWs)   bands (ev):

    -7.6676  -7.6609  -7.6297  -7.6229  -1.7836  -1.7731  -1.4931  -1.4815
     0.8289   0.8406   1.1070   1.1280   1.4351   1.5066   2.0078   2.0933
     3.2294   3.2785   6.0223   6.0677   7.8773   8.0172   8.5231   8.5567
    10.0086  10.1111  11.0317  11.3131  11.5116  11.6872  11.7862  11.9644
    12.3266  12.8119  14.1291  14.5193  14.9699  15.2899  15.4039  16.4793
    16.9574  17.0804  17.2101  17.2354  17.7325  17.9787  18.1443  18.4878
    19.1200  19.5413  19.9329  19.9953  20.3320  20.3827  20.4093  21.4397
    21.5334  21.6273  22.4684  22.6326  23.7050  23.7540  24.1915  24.2103
    24.9753  25.2041  25.2483  25.2711  25.3759  25.6856

          k = 0.5775 0.1663 0.0000 (  8936 PWs)   bands (ev):

    -7.6831  -7.6762  -7.6448  -7.6377  -1.8237  -1.8130  -1.5327  -1.5208
     0.9262   0.9292   1.2411   1.2621   1.4587   1.5233   1.9942   2.0829
     3.2014   3.2517   6.0270   6.0857   7.8302   7.9684   8.6410   8.6647
     9.9873  10.0774  10.8827  11.1041  11.3928  11.6236  11.7437  11.9030
    12.3099  12.7959  14.2807  14.4794  15.0119  15.2963  15.3814  16.5396
    16.9771  17.1281  17.3772  17.3963  17.7041  18.0918  18.1997  18.3814
    19.2027  19.5659  20.0490  20.0811  20.3415  20.4621  20.4935  21.4919
    21.5362  21.6050  22.3652  22.4636  23.5351  23.6906  24.0188  24.1000
    24.8374  25.0285  25.2570  25.3158  25.3680  25.6120

          k = 0.5775 0.1552 0.0000 (  8920 PWs)   bands (ev):

    -7.6983  -7.6912  -7.6595  -7.6522  -1.8617  -1.8507  -1.5700  -1.5578
     0.9939   1.0046   1.3745   1.3952   1.5081   1.5606   1.9826   2.0739
     3.1743   3.2256   6.0268   6.0982   7.7858   7.9220   8.7632   8.7773
     9.9283  10.0096  10.7154  10.9007  11.3037  11.5998  11.7074  11.8677
    12.3112  12.7842  14.4314  14.4387  14.9587  15.3543  15.3939  16.5858
    16.8507  17.3001  17.5006  17.5364  17.7276  18.1898  18.2742  18.2837
    19.2793  19.5728  20.1674  20.1889  20.3624  20.5350  20.6045  21.4549
    21.5715  21.6462  22.2771  22.3004  23.3182  23.6661  23.8216  23.9928
    24.6466  24.8652  25.3087  25.3200  25.3712  25.5330

          k = 0.5775 0.1441 0.0000 (  8928 PWs)   bands (ev):

    -7.7130  -7.7056  -7.6737  -7.6662  -1.8973  -1.8862  -1.6049  -1.5926
     1.0328   1.0595   1.5053   1.5251   1.5845   1.6222   1.9742   2.0672
     3.1482   3.2005   6.0223   6.1056   7.7439   7.8779   8.8861   8.8919
     9.8361   9.9128  10.5429  10.7092  11.2342  11.6111  11.6742  11.8511
    12.3328  12.7778  14.3976  14.5782  14.8637  15.3231  15.5291  16.6202
    16.7106  17.4700  17.4930  17.6681  17.8599  18.1934  18.2686  18.3918
    19.3563  19.5626  20.2884  20.3095  20.3919  20.6248  20.7089  21.4272
    21.5222  21.7647  22.1497  22.2097  23.1074  23.6200  23.6216  23.8725
    24.4479  24.7209  25.2898  25.3559  25.3831  25.4473

          k = 0.5775 0.1330 0.0000 (  8936 PWs)   bands (ev):

    -7.7270  -7.7194  -7.6873  -7.6796  -1.9305  -1.9192  -1.6375  -1.6251
     1.0510   1.0921   1.6310   1.6475   1.6818   1.7062   1.9724   2.0647
     3.1235   3.1766   6.0137   6.1081   7.7047   7.8361   9.0036   9.0053
     9.7193   9.7951  10.3765  10.5357  11.1770  11.6431  11.6486  11.8440
    12.3769  12.7778  14.3562  14.7169  14.7523  15.2878  15.6757  16.5664
    16.6460  17.4381  17.6321  17.7287  18.0368  18.1888  18.3279  18.5182
    19.4413  19.5377  20.4114  20.4250  20.4355  20.7266  20.7994  21.4133
    21.4508  21.8869  22.0201  22.1687  22.9061  23.4157  23.5506  23.7422
    24.2520  24.5984  25.2353  25.3542  25.3880  25.3996

          k = 0.5775 0.1219 0.0000 (  8936 PWs)   bands (ev):

    -7.7403  -7.7325  -7.7002  -7.6923  -1.9612  -1.9498  -1.6677  -1.6551
     1.0559   1.1081   1.7463   1.7523   1.7915   1.8058   1.9867   2.0705
     3.1002   3.1541   6.0018   6.1063   7.6681   7.7964   9.1071   9.1115
     9.5870   9.6643  10.2268  10.3882  11.1279  11.6137  11.7026  11.8390
    12.4431  12.7853  14.3145  14.6314  14.8411  15.2488  15.8257  16.4301
    16.6650  17.3698  17.6980  17.7758  18.2260  18.2844  18.3767  18.6565
    19.5018  19.5389  20.4558  20.5353  20.5608  20.8351  20.8691  21.3525
    21.4159  21.9195  22.0068  22.1602  22.7176  23.2096  23.4519  23.6050
    24.0645  24.4964  25.1647  25.2531  25.4022  25.4061

          k = 0.5775 0.1108 0.0000 (  8926 PWs)   bands (ev):

    -7.7527  -7.7448  -7.7123  -7.7043  -1.9894  -1.9780  -1.6954  -1.6826
     1.0533   1.1134   1.8196   1.8407   1.9067   1.9140   2.0356   2.0941
     3.0785   3.1330   5.9869   6.1006   7.6341   7.7589   9.1903   9.1940
     9.4471   9.5276  10.1068  10.2785  11.0844  11.5855  11.7645  11.8328
    12.5285  12.8017  14.2725  14.5042  14.9416  15.2060  15.9754  16.3136
    16.6804  17.2961  17.6254  17.8824  18.4203  18.4334  18.4361  18.7992
    19.4607  19.6493  20.4797  20.6584  20.6782  20.9139  20.9445  21.2310
    21.4356  21.8496  22.1165  22.1874  22.5465  23.0035  23.3305  23.4643
    23.8908  24.4095  25.0835  25.1440  25.3666  25.3984

          k = 0.5775 0.0998 0.0000 (  8940 PWs)   bands (ev):

    -7.7642  -7.7562  -7.7235  -7.7153  -2.0151  -2.0035  -1.7205  -1.7076
     1.0469   1.1126   1.8455   1.9002   2.0227   2.0252   2.1218   2.1484
     3.0585   3.1137   5.9696   6.0916   7.6028   7.7235   9.2371   9.2380
     9.3062   9.3908  10.0335  10.2211  11.0452  11.5585  11.8246  11.8273
    12.6282  12.8280  14.2302  14.3728  15.0063  15.1596  16.1214  16.2312
    16.6944  17.2207  17.5471  17.9331  18.5302  18.5996  18.6191  18.9328
    19.4266  19.7693  20.4949  20.7747  20.7776  20.9352  21.0482  21.1008
    21.4699  21.8071  22.2018  22.2483  22.4028  22.8001  23.1947  23.3236
    23.7381  24.3311  24.9950  25.0269  25.2583  25.3779

          k = 0.5775 0.0887 0.0000 (  8950 PWs)   bands (ev):

    -7.7747  -7.7666  -7.7337  -7.7254  -2.0381  -2.0265  -1.7430  -1.7301
     1.0386   1.1084   1.8511   1.9267   2.1343   2.1368   2.2227   2.2301
     3.0404   3.0961   5.9506   6.0799   7.5740   7.6902   9.1688   9.2346
     9.2349   9.2584  10.0201  10.2238  11.0092  11.5322  11.8152  11.8860
    12.7373  12.8648  14.1874  14.2396  15.0250  15.1097  16.1942  16.2603
    16.7097  17.1463  17.4774  17.9307  18.6626  18.7722  18.8188  19.0264
    19.4296  19.8927  20.5023  20.8113  20.8746  20.9528  21.0033  21.1379
    21.5137  21.7895  22.2089  22.3299  22.3350  22.6085  23.0536  23.1862
    23.6160  24.2559  24.9007  24.9036  25.1131  25.3435

          k = 0.5775 0.0776 0.0000 (  8948 PWs)   bands (ev):

    -7.7841  -7.7759  -7.7429  -7.7345  -2.0585  -2.0468  -1.7630  -1.7499
     1.0298   1.1027   1.8497   1.9359   2.2395   2.2447   2.3214   2.3241
     3.0242   3.0803   5.9306   6.0661   7.5480   7.6592   9.0391   9.1338
     9.1886   9.1922  10.0608  10.2785  10.9758  11.5064  11.8051  11.9373
    12.8512  12.9118  14.1071  14.1443  14.9972  15.0566  16.2028  16.3877
    16.7290  17.0749  17.4231  17.8949  18.8192  18.9436  19.0199  19.0419
    19.5075  20.0115  20.5063  20.7296  20.8873  20.9957  21.0326  21.2029
    21.5599  21.7973  22.1348  22.3321  22.3430  22.5233  22.9157  23.0555
    23.5340  24.1812  24.7706  24.8072  24.9623  25.2993

          k = 0.5775 0.0665 0.0000 (  8952 PWs)   bands (ev):

    -7.7924  -7.7841  -7.7509  -7.7424  -2.0762  -2.0644  -1.7804  -1.7672
     1.0213   1.0964   1.8459   1.9380   2.3373   2.3447   2.4117   2.4188
     3.0100   3.0666   5.9102   6.0511   7.5247   7.6306   8.9204   9.0207
     9.1187   9.1274  10.1346  10.3666  10.9442  11.4807  11.7953  11.9796
    12.9655  12.9672  13.9785  14.1009  14.9352  15.0011  16.2432  16.4983
    16.7554  17.0087  17.3888  17.8430  18.9870  18.9953  19.1092  19.2212
    19.6451  20.1129  20.5154  20.6060  20.8591  21.0026  21.1333  21.2316
    21.6007  21.8309  22.0775  22.1678  22.3315  22.6275  22.7890  22.9347
    23.4965  24.1068  24.6332  24.7129  24.8194  25.2498

          k = 0.5775 0.0554 0.0000 (  8948 PWs)   bands (ev):

    -7.7995  -7.7911  -7.7579  -7.7493  -2.0913  -2.0794  -1.7951  -1.7819
     1.0135   1.0904   1.8416   1.9373   2.4251   2.4344   2.4942   2.5040
     2.9979   3.0548   5.8904   6.0359   7.5043   7.6049   8.8152   8.9212
     9.0433   9.0563  10.2225  10.4704  10.9137  11.4548  11.7863  12.0130
    13.0279  13.0761  13.8575  14.0578  14.8560  14.9447  16.2965  16.5870
    16.7919  16.9493  17.3771  17.7864  18.9221  19.1582  19.2630  19.4219
    19.8081  20.1789  20.4907  20.5430  20.8173  20.9815  21.2173  21.2268
    21.6291  21.8861  21.9885  22.0502  22.2954  22.6809  22.7675  22.8264
    23.4965  24.0346  24.4912  24.6225  24.6906  25.1999

          k = 0.5775 0.0443 0.0000 (  8940 PWs)   bands (ev):

    -7.8054  -7.7969  -7.7636  -7.7549  -2.1036  -2.0917  -1.8071  -1.7939
     1.0068   1.0850   1.8376   1.9356   2.5009   2.5115   2.5657   2.5772
     2.9878   3.0451   5.8722   6.0214   7.4870   7.5824   8.7260   8.8373
     8.9731   8.9893  10.3122  10.5770  10.8839  11.4285  11.7784  12.0380
    13.0900  13.1784  13.7484  14.0159  14.7742  14.8897  16.3470  16.6507
    16.8389  16.8986  17.3872  17.7324  18.8413  19.3273  19.3969  19.6203
    19.9802  20.1962  20.4019  20.5966  20.7642  20.9305  21.1631  21.3065
    21.6407  21.8221  21.9539  22.0360  22.2577  22.5963  22.7326  22.9166
    23.5194  23.9684  24.3464  24.5395  24.5794  25.1544

          k = 0.5775 0.0333 0.0000 (  8946 PWs)   bands (ev):

    -7.8100  -7.8015  -7.7680  -7.7593  -2.1132  -2.1013  -1.8165  -1.8032
     1.0014   1.0805   1.8341   1.9337   2.5623   2.5741   2.6238   2.6363
     2.9800   3.0374   5.8566   6.0086   7.4731   7.5638   8.6546   8.7707
     8.9144   8.9327  10.3957  10.6762  10.8545  11.4022  11.7721  12.0558
    13.1482  13.2672  13.6561  13.9773  14.7009  14.8392  16.3862  16.6911
    16.8577  16.8923  17.4129  17.6858  18.7639  19.4902  19.5000  19.8146
    20.1538  20.1705  20.3545  20.6637  20.6967  20.8555  21.0780  21.3663
    21.6363  21.6824  22.0107  22.0234  22.2441  22.5368  22.6550  23.0668
    23.5501  23.9126  24.2021  24.4682  24.4885  25.1170

          k = 0.5775 0.0222 0.0000 (  8950 PWs)   bands (ev):

    -7.8133  -7.8047  -7.7713  -7.7625  -2.1201  -2.1081  -1.8232  -1.8099
     0.9975   1.0772   1.8316   1.9322   2.6077   2.6202   2.6666   2.6798
     2.9743   3.0320   5.8446   5.9986   7.4629   7.5499   8.6025   8.7224
     8.8705   8.8901  10.4661  10.7587  10.8266  11.3777  11.7674  12.0677
    13.1969  13.3370  13.5854  13.9449  14.6434  14.7977  16.4123  16.7136
    16.8277  16.9429  17.4434  17.6502  18.6991  19.5641  19.6427  20.0015
    20.1139  20.3230  20.3577  20.6095  20.7249  20.7657  20.9708  21.3953
    21.5880  21.6226  21.9743  22.0846  22.2536  22.4993  22.5952  23.2091
    23.5777  23.8709  24.0650  24.4129  24.4204  25.0899

          k = 0.5775 0.0111 0.0000 (  8950 PWs)   bands (ev):

    -7.8153  -7.8067  -7.7732  -7.7644  -2.1242  -2.1122  -1.8272  -1.8139
     0.9951   1.0752   1.8300   1.9312   2.6355   2.6485   2.6928   2.7064
     2.9709   3.0287   5.8370   5.9923   7.4566   7.5412   8.5708   8.6931
     8.8435   8.8638  10.5157  10.8040  10.8147  11.3591  11.7646  12.0744
    13.2297  13.3819  13.5409  13.9227  14.6069  14.7701  16.4268  16.7243
    16.8095  16.9794  17.4671  17.6279  18.6556  19.5932  19.7783  20.0358
    20.1745  20.4012  20.4776  20.5003  20.6756  20.7668  20.8532  21.3885
    21.5523  21.6090  21.9447  22.1278  22.2677  22.4794  22.5559  23.3258
    23.5961  23.8454  23.9519  24.3778  24.3780  25.0739

          k = 0.5775 0.0000 0.0000 (  8950 PWs)   bands (ev):

    -7.8159  -7.8073  -7.7738  -7.7651  -2.1256  -2.1136  -1.8286  -1.8153
     0.9943   1.0745   1.8295   1.9309   2.6449   2.6581   2.7017   2.7153
     2.9697   3.0276   5.8344   5.9901   7.4545   7.5383   8.5602   8.6833
     8.8344   8.8549  10.5343  10.7947  10.8348  11.3519  11.7636  12.0766
    13.2414  13.3975  13.5256  13.9147  14.5944  14.7603  16.4314  16.7273
    16.8033  16.9928  17.4760  17.6203  18.6402  19.6007  19.8605  19.9730
    20.2890  20.4078  20.4359  20.5653  20.6271  20.7778  20.7817  21.3786
    21.5475  21.6035  21.9337  22.1436  22.2736  22.4731  22.5419  23.3760
    23.6025  23.8369  23.9029  24.3635  24.3657  25.0687

          k = 0.5583 0.0000 0.0000 (  8946 PWs)   bands (ev):

    -7.8244  -7.8156  -7.7820  -7.7730  -2.1117  -2.0995  -1.8137  -1.8003
     0.9718   1.0549   1.8196   1.9249   2.6480   2.6612   2.7047   2.7184
     2.9879   3.0466   5.8392   5.9978   7.4652   7.5514   8.5653   8.6890
     8.8391   8.8586  10.5466  10.7985  10.8385  11.3623  11.7224  12.0927
    13.2443  13.4001  13.5262  13.9364  14.6012  14.7703  16.3322  16.8065
    16.8350  16.9949  17.4769  17.6290  18.6339  19.5861  19.8166  19.9133
    20.2147  20.3981  20.4058  20.4625  20.5266  20.7632  20.7914  21.3317
    21.5724  21.6157  21.7325  22.3189  22.3714  22.4069  22.6370  23.4781
    23.6557  23.8871  23.9567  24.3690  24.4018  25.0632

          k = 0.5390 0.0000 0.0000 (  8946 PWs)   bands (ev):

    -7.8496  -7.8402  -7.8060  -7.7964  -2.0705  -2.0577  -1.7694  -1.7556
     0.9083   0.9983   1.7906   1.9068   2.6574   2.6705   2.7140   2.7276
     3.0398   3.0992   5.8547   6.0211   7.4971   7.5900   8.5804   8.7058
     8.8531   8.8701  10.5828  10.8099  10.8498  11.3933  11.6219  12.1207
    13.2530  13.4081  13.5277  13.9982  14.6214  14.8009  16.1675  16.8162
    17.0011  17.0246  17.4794  17.6538  18.6146  19.5363  19.7052  19.7482
    20.0160  20.2042  20.2733  20.2998  20.3664  20.7172  20.8158  21.2219
    21.4442  21.6298  21.6298  22.2992  22.5440  22.6099  22.8755  23.6991
    23.7991  24.0285  24.1090  24.3816  24.5024  25.0468

          k = 0.5198 0.0000 0.0000 (  8947 PWs)   bands (ev):

    -7.8906  -7.8803  -7.8451  -7.8345  -2.0033  -1.9896  -1.6966  -1.6823
     0.8135   0.9116   1.7446   1.8761   2.6729   2.6860   2.7293   2.7429
     3.1174   3.1747   5.8839   6.0607   7.5495   7.6523   8.6058   8.7339
     8.8761   8.8907  10.6417  10.8288  10.8685  11.4443  11.4921  12.1386
    13.2674  13.4211  13.5291  14.0904  14.6548  14.8538  16.0053  16.8330
    17.0108  17.2254  17.4825  17.6904  18.5814  19.4341  19.5059  19.5569
    19.7368  19.8675  19.9416  20.1764  20.2464  20.6318  20.8479  21.0537
    21.1683  21.6715  21.6930  22.2399  22.7580  22.9059  23.1800  23.9315
    23.9939  24.2364  24.3375  24.3962  24.6453  25.0195

          k = 0.5005 0.0000 0.0000 (  8941 PWs)   bands (ev):

    -7.9457  -7.9344  -7.8979  -7.8862  -1.9124  -1.8977  -1.5966  -1.5816
     0.6983   0.8037   1.6842   1.8331   2.6945   2.7076   2.7507   2.7642
     3.2104   3.2606   5.9309   6.1182   7.6207   7.7356   8.6414   8.7733
     8.9073   8.9226  10.7208  10.8552  10.8946  11.3490  11.5142  12.1412
    13.2872  13.4390  13.5290  14.1991  14.7011  14.9323  15.8588  16.8575
    17.0230  17.4182  17.4844  17.7309  18.5339  19.2122  19.2606  19.3879
    19.4111  19.4971  19.5769  20.0523  20.0624  20.4922  20.8271  20.8846
    20.9538  21.7497  21.7826  22.2269  22.9653  23.2057  23.4954  24.1001
    24.1974  24.4276  24.4771  24.6147  24.7923  24.9839

          k = 0.4813 0.0000 0.0000 (  8945 PWs)   bands (ev):

    -8.0134  -8.0010  -7.9627  -7.9499  -1.8011  -1.7852  -1.4712  -1.4556
     0.5725   0.6841   1.6118   1.7789   2.7222   2.7352   2.7780   2.7915
     3.3081   3.3456   6.0004   6.1958   7.7084   7.8363   8.6875   8.8238
     8.9466   8.9672  10.8175  10.8888  10.9279  11.2023  11.6017  12.1312
    13.3121  13.4614  13.5254  14.3089  14.7595  15.0397  15.7343  16.8904
    17.0356  17.4814  17.5836  17.7617  18.4750  18.8863  19.0157  19.0599
    19.1156  19.2030  19.2042  19.8219  19.9635  20.3112  20.5793  20.8273
    20.9256  21.7977  21.9523  22.2349  23.1678  23.4703  23.7814  24.1476
    24.3712  24.5075  24.7111  24.8901  24.9134  24.9496

          k = 0.4620 0.0000 0.0000 (  8945 PWs)   bands (ev):

    -8.0915  -8.0781  -8.0376  -8.0237  -1.6737  -1.6567  -1.3227  -1.3062
     0.4451   0.5614   1.5299   1.7147   2.7558   2.7687   2.8111   2.8245
     3.3999   3.4221   6.0964   6.2960   7.8093   7.9502   8.7445   8.8855
     8.9957   9.0248  10.9286  10.9296  10.9682  11.0588  11.7054  12.1133
    13.3417  13.4877  13.5163  14.4073  14.8290  15.1761  15.6358  16.9321
    17.0451  17.4664  17.6888  17.7624  18.4171  18.5418  18.6964  18.7195
    18.7366  18.8414  19.0004  19.5982  19.8540  20.1597  20.3474  20.7664
    20.9712  21.8381  22.1556  22.2518  23.3620  23.6597  23.9988  24.1072
    24.4773  24.6038  24.8951  24.9104  24.9403  25.2060

          k = 0.4428 0.0000 0.0000 (  8969 PWs)   bands (ev):

    -8.1780  -8.1636  -8.1209  -8.1059  -1.5362  -1.5186  -1.1532  -1.1358
     0.3249   0.4445   1.4408   1.6426   2.7951   2.8079   2.8499   2.8632
     3.4693   3.4935   6.2218   6.4210   7.9198   8.0723   8.8132   8.9581
     9.0559   9.0951  10.9245  10.9773  11.0152  11.0507  11.8234  12.0930
    13.3753  13.5003  13.5172  14.4883  14.9080  15.3347  15.5663  16.9822
    17.0436  17.4244  17.6873  17.7068  18.1886  18.3293  18.3555  18.3728
    18.4203  18.5095  18.7765  19.4236  19.7355  20.0770  20.1568  20.7490
    21.0215  21.8722  22.2538  22.3938  23.5396  23.7341  24.0313  24.1090
    24.4776  24.6807  24.8937  24.9897  24.9933  25.4633

          k = 0.4235 0.0000 0.0000 (  8963 PWs)   bands (ev):

    -8.2711  -8.2558  -8.2105  -8.1946  -1.3972  -1.3801  -0.9652  -0.9469
     0.2221   0.3432   1.3471   1.5646   2.8399   2.8526   2.8942   2.9074
     3.5090   3.5595   6.3772   6.5719   8.0357   8.1961   8.8950   9.0412
     9.1282   9.1786  10.8047  11.0315  11.0687  11.1800  11.9543  12.0755
    13.4121  13.4771  13.5489  14.5513  14.9940  15.5006  15.5271  17.0148
    17.0397  17.3270  17.5604  17.5754  17.8336  17.9647  18.0397  18.0441
    18.2401  18.3833  18.5374  19.3243  19.6595  20.0242  20.0364  20.7674
    21.0765  21.9005  22.2617  22.6308  23.6828  23.6864  23.9452  24.0938
    24.3771  24.7332  24.8636  24.9976  25.1075  25.6557

          k = 0.4043 0.0000 0.0000 (  8975 PWs)   bands (ev):

    -8.3688  -8.3527  -8.3048  -8.2879  -1.2688  -1.2545  -0.7614  -0.7422
     0.1509   0.2702   1.2510   1.4831   2.8901   2.9027   2.9437   2.9568
     3.5266   3.6099   6.5616   6.7488   8.1524   8.3141   8.9915   9.1344
     9.2131   9.2756  10.7054  11.0918  11.1282  11.3127  12.0660  12.0960
    13.4482  13.4508  13.5814  14.5978  15.0827  15.5164  15.6515  16.9256
    17.1001  17.1438  17.3381  17.3717  17.4825  17.6076  17.6967  17.7860
    18.0651  18.3079  18.3610  19.2910  19.6551  19.9621  20.0121  20.8197
    21.1354  21.9226  22.2580  22.8686  23.5342  23.7757  23.8673  23.9692
    24.2301  24.7623  24.7919  24.9262  25.2662  25.7616

          k = 0.3850 0.0000 0.0000 (  8969 PWs)   bands (ev):

    -8.4695  -8.4526  -8.4021  -8.3844  -1.1687  -1.1588  -0.5447  -0.5245
     0.1293   0.2414   1.1555   1.4006   2.9454   2.9578   2.9982   3.0111
     3.5251   3.6432   6.7720   6.9503   8.2648   8.4185   9.1046   9.2367
     9.3109   9.3866  10.6324  11.1578  11.1931  11.4443  12.0689  12.2468
    13.4173  13.4899  13.6127  14.6285  15.1662  15.5293  15.7570  16.7425
    16.8811  17.0581  17.0767  17.1401  17.1996  17.2624  17.3668  17.6346
    17.9775  18.1267  18.3121  19.2932  19.7113  19.9780  19.9923  20.9047
    21.1975  21.9372  22.2405  23.0849  23.3246  23.7504  23.7687  23.8219
    24.1064  24.6585  24.7665  24.8025  25.4378  25.7779

          k = 0.3658 0.0000 0.0000 (  8971 PWs)   bands (ev):

    -8.5716  -8.5541  -8.5010  -8.4826  -1.1196  -1.1034  -0.3189  -0.2982
     0.1736   0.2726   1.0642   1.3205   3.0053   3.0176   3.0573   3.0700
     3.5075   3.6601   7.0048   7.1737   8.3665   8.5047   9.2343   9.3473
     9.4217   9.5120  10.5918  11.2288  11.2628  11.5701  12.0884  12.4049
    13.3900  13.5269  13.6403  14.6429  15.2295  15.5547  15.7809  16.4809
    16.5757  16.7533  16.7986  16.8111  16.9335  17.0680  17.2539  17.5755
    17.9407  18.0335  18.2443  19.3095  19.7992  19.9707  20.0683  21.0201
    21.2611  21.9423  22.2058  23.0801  23.2362  23.5236  23.5810  23.8531
    24.0320  24.4674  24.6455  24.7380  25.6083  25.7217

          k = 0.3465 0.0000 0.0000 (  8973 PWs)   bands (ev):

    -8.6738  -8.6557  -8.6001  -8.5811  -1.1266  -1.0943  -0.0896  -0.0697
     0.2872   0.3700   0.9837   1.2478   3.0697   3.0818   3.1207   3.1333
     3.4772   3.6626   7.2558   7.4161   8.4466   8.5752   9.3783   9.4653
     9.5454   9.6521  10.5884  11.3038  11.3363  11.6848  12.1280  12.5682
    13.3734  13.5588  13.6607  14.6375  15.2459  15.5676  15.6986  16.1834
    16.2568  16.4643  16.4947  16.5004  16.6260  16.8242  17.3342  17.5656
    17.9266  18.0462  18.1712  19.3376  19.8906  19.9452  20.2164  21.1589
    21.3241  21.9353  22.1517  22.8176  23.2573  23.2854  23.3380  23.9173
    23.9941  24.2545  24.4692  24.6572  25.5978  25.6195

          k = 0.3273 0.0000 0.0000 (  8981 PWs)   bands (ev):

    -8.7751  -8.7565  -8.6984  -8.6788  -1.1755  -1.1276   0.1315   0.1481
     0.4576   0.5261   0.9282   1.1913   3.1380   3.1499   3.1880   3.2003
     3.4374   3.6533   7.5209   7.6738   8.4908   8.6411   9.5321   9.5901
     9.6814   9.8070  10.6243  11.3818  11.4124  11.7829  12.1896  12.7347
    13.3749  13.5812  13.6691  14.6054  15.1821  15.5054  15.5180  15.8777
    15.9401  16.1983  16.2138  16.2626  16.3456  16.6658  17.4351  17.5766
    17.9197  18.1045  18.1474  19.3853  19.8962  19.9851  20.4024  21.3069
    21.3834  21.9131  22.0783  22.5491  22.9859  23.0717  23.2612  23.6853
    24.0812  24.1987  24.2851  24.4829  25.1650  25.2285

          k = 0.3080 0.0000 0.0000 (  8999 PWs)   bands (ev):

    -8.8743  -8.8552  -8.7949  -8.7747  -1.2503  -1.1900   0.3051   0.3404
     0.6681   0.7260   0.9325   1.1695   3.2098   3.2215   3.2587   3.2707
     3.3910   3.6346   7.7963   7.9433   8.4960   8.7060   9.6913   9.7213
     9.8291   9.9769  10.6980  11.4613  11.4897  11.8598  12.2739  12.9021
    13.4016  13.5884  13.6599  14.5349  15.0225  15.2699  15.3050  15.5778
    15.6342  15.9313  15.9582  16.0990  16.2089  16.6110  17.5541  17.5939
    17.9114  18.0539  18.3039  19.4615  19.8430  20.0506  20.6079  21.4349
    21.4378  21.8728  21.9894  22.2837  22.7205  22.8132  23.1933  23.3588
    23.9420  24.1035  24.1487  24.3781  24.7774  24.8358

          k = 0.2888 0.0000 0.0000 (  9003 PWs)   bands (ev):

    -8.9706  -8.9512  -8.8886  -8.8680  -1.3385  -1.2691   0.3757   0.4798
     0.9049   0.9560   1.0442   1.2160   3.2845   3.2960   3.3322   3.3405
     3.3440   3.6088   8.0781   8.2209   8.4717   8.7639   9.8522   9.8594
     9.9869  10.1612  10.8043  11.5403  11.5661  11.9133  12.3785  13.0676
    13.4574  13.5733  13.6266  14.4111  14.7864  14.9867  15.0120  15.2916
    15.3449  15.7155  15.7413  15.8932  16.2479  16.6490  17.6093  17.6852
    17.8957  18.0284  18.4847  19.5746  19.7709  20.0928  20.8132  21.4729
    21.5049  21.8118  21.8949  22.0288  22.4695  22.5994  22.9953  23.0731
    23.7256  23.8049  23.9349  24.1690  24.4379  24.8228

          k = 0.2695 0.0000 0.0000 (  8989 PWs)   bands (ev):

    -9.0633  -9.0435  -8.9789  -8.9579  -1.4322  -1.3561   0.3603   0.5357
     1.1586   1.2060   1.2500   1.3558   3.2884   3.3616   3.3728   3.4079
     3.4194   3.5781   8.3631   8.4273   8.5033   8.8105  10.0017  10.0151
    10.1525  10.3591  10.9356  11.6163  11.6390  11.9448  12.4970  13.2282
    13.5292  13.5420  13.5639  14.2255  14.5077  14.6902  14.6948  15.0250
    15.0771  15.5651  15.5708  15.7342  16.3051  16.7547  17.6167  17.8240
    17.8678  18.0361  18.6666  19.6794  19.7302  20.1053  20.9863  21.4524
    21.4907  21.7287  21.7910  21.8157  22.2394  22.4320  22.6654  22.8698
    23.2594  23.6427  23.7899  23.8778  24.0728  24.6711

          k = 0.2503 0.0000 0.0000 (  9001 PWs)   bands (ev):

    -9.1517  -9.1316  -9.0651  -9.0438  -1.5266  -1.4456   0.3075   0.5271
     1.4225   1.4690   1.5012   1.5679   3.2367   3.4402   3.4511   3.4851
     3.4963   3.5444   8.3699   8.6479   8.7872   8.8444  10.1507  10.1764
    10.3224  10.5682  11.0832  11.6862  11.7052  11.9583  12.6159  13.3786
    13.4516  13.4697  13.6484  13.9863  14.2163  14.3736  14.4185  14.7832
    14.8354  15.4515  15.4774  15.6246  16.3480  16.9029  17.6110  17.8238
    17.9678  18.0825  18.8352  19.5689  19.9270  20.0826  21.0729  21.2794
    21.4810  21.5763  21.6238  21.7815  22.0352  22.1286  22.5492  22.5864
    22.7958  23.3877  23.6788  23.6854  23.8241  24.4825

          k = 0.2310 0.0000 0.0000 (  9021 PWs)   bands (ev):

    -9.2353  -9.2150  -9.1467  -9.1250  -1.6188  -1.5340   0.2424   0.4875
     1.6910   1.7395   1.7716   1.8174   3.1878   3.5093   3.5197   3.5302
     3.5631   3.5739   8.3047   8.8657   8.9297   9.0699  10.3037  10.3369
    10.4909  10.7839  11.2386  11.7460  11.7607  11.9584  12.7090  13.3415
    13.3465  13.5009  13.7134  13.7520  13.9462  14.0992  14.1908  14.5716
    14.6250  15.3831  15.4382  15.5622  16.3676  17.0705  17.5878  17.7608
    18.1143  18.1687  18.9864  19.4435  20.0191  20.1524  21.0368  21.0453
    21.3899  21.4374  21.5000  21.7375  21.7484  21.8608  22.2762  22.4286
    22.5118  23.0393  23.5710  23.6093  23.7047  24.2819

          k = 0.2118 0.0000 0.0000 (  9007 PWs)   bands (ev):

    -9.3136  -9.2931  -9.2231  -9.2012  -1.7068  -1.6191   0.1747   0.4357
     1.9585   2.0132   2.0500   2.0838   3.1449   3.4747   3.5990   3.6092
     3.6409   3.6514   8.2355   8.8756   9.2057   9.3488  10.4589  10.4958
    10.6504  10.9978  11.3932  11.7911  11.8013  11.9472  12.7332  13.2008
    13.2053  13.4272  13.4950  13.6879  13.8377  14.0169  14.0580  14.3955
    14.4509  15.3595  15.4334  15.5403  16.3657  17.2348  17.5434  17.6769
    18.2613  18.2906  19.1222  19.3133  19.9103  20.3762  20.8004  20.9137
    21.2359  21.3448  21.3672  21.3747  21.5071  21.7182  21.8931  22.3954
    22.4068  22.6875  23.5007  23.5850  23.6478  24.0758

          k = 0.1925 0.0000 0.0000 (  9013 PWs)   bands (ev):

    -9.3862  -9.3655  -9.2941  -9.2719  -1.7893  -1.6994   0.1086   0.3806
     2.2170   2.2855   2.3303   2.3563   3.1130   3.4423   3.6774   3.6872
     3.7176   3.7277   8.1651   8.8758   9.4732   9.6214  10.6135  10.6506
    10.7918  11.1940  11.5385  11.8174  11.8229  11.9196  12.6535  13.0419
    13.0518  13.1456  13.3205  13.5009  13.9176  14.0572  14.1290  14.2600
    14.3178  15.3717  15.4535  15.5505  16.3489  17.3697  17.4758  17.5721
    18.4054  18.4403  19.1960  19.2454  19.7537  20.5174  20.5731  20.7597
    21.0010  21.1168  21.1605  21.1969  21.2625  21.5816  21.6079  22.1341
    22.3909  22.5383  23.4668  23.6039  23.6377  23.8802

          k = 0.1733 0.0000 0.0000 (  9011 PWs)   bands (ev):

    -9.4528  -9.4319  -9.3592  -9.3368  -1.8656  -1.7739   0.0462   0.3262
     2.4521   2.5511   2.6080   2.6285   3.1040   3.4147   3.7536   3.7630
     3.7922   3.8018   8.0953   8.8679   9.7294   9.8856  10.7628  10.7972
    10.9060  11.3452  11.6643  11.8214  11.8235  11.8625  12.4883  12.8778
    12.8862  12.8910  13.1649  13.3696  14.0334  14.1684  14.1729  14.2285
    14.2704  15.4100  15.4927  15.5839  16.3256  17.3850  17.4443  17.4479
    18.5415  18.6070  19.1161  19.3559  19.5539  20.3757  20.4081  20.6226
    20.6601  20.8139  21.0329  21.0365  21.1333  21.4862  21.5282  21.7961
    22.1080  22.6484  23.4894  23.6596  23.6733  23.7215

          k = 0.1540 0.0000 0.0000 (  9009 PWs)   bands (ev):

    -9.5131  -9.4920  -9.4181  -9.3956  -1.9348  -1.8417  -0.0113   0.2748
     2.6339   2.8017   2.8791   2.8953   3.1448   3.3973   3.8266   3.8356
     3.8636   3.8727   8.0278   8.8536   9.9711  10.1387  10.8994  10.9277
    10.9875  11.4163  11.7575  11.7632  11.8008  11.8047  12.2871  12.6717
    12.7159  12.7309  13.1069  13.3357  14.1213  14.1409  14.1831  14.3606
    14.4150  15.4661  15.5471  15.6330  16.3043  17.2731  17.3075  17.4342
    18.6620  18.7700  19.0932  19.3265  19.4476  20.1349  20.2047  20.3615
    20.3816  20.5481  20.8739  20.9821  20.9912  21.4608  21.4761  21.6053
    21.8068  22.6528  23.5663  23.6633  23.7365  23.7445

          k = 0.1348 0.0000 0.0000 (  9011 PWs)   bands (ev):

    -9.5668  -9.5456  -9.4706  -9.4479  -1.9967  -1.9024  -0.0632   0.2278
     2.7286   3.0177   3.1394   3.1519   3.2656   3.4061   3.8952   3.9037
     3.9305   3.9392   7.9636   8.8344  10.1943  10.3766  11.0094  11.0281
    11.0330  11.3917  11.6289  11.7611  11.7678  11.8043  12.0939  12.5309
    12.5621  12.5779  13.1725  13.4016  14.1152  14.1779  14.2253  14.5566
    14.5864  15.5329  15.6130  15.6914  16.2926  17.1441  17.1555  17.3399
    18.7547  18.8579  19.1181  19.1322  19.4967  19.8165  20.0299  20.1091
    20.1497  20.3650  20.7146  20.8446  20.9604  21.1644  21.4470  21.5025
    21.7838  22.5507  23.5764  23.5793  23.8300  23.8313

          k = 0.1155 0.0000 0.0000 (  9003 PWs)   bands (ev):

    -9.6137  -9.5924  -9.5165  -9.4937  -2.0509  -1.9557  -0.1088   0.1859
     2.7550   3.1524   3.3841   3.3934   3.4433   3.4836   3.9580   3.9661
     3.9918   4.0000   7.9036   8.8117  10.3931  10.5903  11.0348  11.0655
    11.0813  11.3011  11.4932  11.7087  11.7175  11.8141  11.9472  12.4208
    12.4370  12.4775  13.3404  13.5443  14.1434  14.2060  14.2790  14.6912
    14.8305  15.6046  15.6866  15.7537  16.2957  16.9967  17.0049  17.1863
    18.7136  18.8015  19.0517  19.1962  19.4375  19.5018  19.8676  19.9448
    20.0341  20.2369  20.5637  20.7009  20.9416  20.9620  21.2198  21.4358
    21.9403  22.3917  23.2866  23.6446  23.8775  23.9697

          k = 0.0963 0.0000 0.0000 (  9003 PWs)   bands (ev):

    -9.6537  -9.6323  -9.5557  -9.5327  -2.0970  -2.0011  -0.1480   0.1498
     2.7531   3.1935   3.6078   3.6141   3.6329   3.6380   4.0139   4.0215
     4.0463   4.0540   7.8488   8.7870  10.5594  10.7523  10.9796  11.0425
    11.0716  11.2069  11.4060  11.6508  11.6608  11.8291  11.8793  12.2958
    12.3121  12.4859  13.5687  13.7345  14.1969  14.2586  14.3001  14.8135
    15.0794  15.6762  15.7634  15.8150  16.3145  16.8389  16.8610  17.0034
    18.4629  18.7811  19.0271  19.1800  19.1934  19.2825  19.7489  19.9200
    20.0008  20.1698  20.4261  20.5668  20.8176  20.9805  21.0025  21.4371
    22.0474  22.2163  23.0046  23.7795  23.8362  24.0952

          k = 0.0770 0.0000 0.0000 (  8985 PWs)   bands (ev):

    -9.6866  -9.6652  -9.5879  -9.5649  -2.1350  -2.0385  -0.1803   0.1198
     2.7426   3.1971   3.8017   3.8054   3.8089   3.8123   4.0616   4.0688
     4.0928   4.1001   7.8004   8.7620  10.6784  10.7899  10.8854  10.9631
    11.0009  11.2047  11.3877  11.5939  11.6047  11.8686  11.8887  12.1898
    12.2061  12.5197  13.8210  13.9454  14.2653  14.2933  14.3255  14.9172
    15.3214  15.7431  15.8380  15.8714  16.3449  16.6887  16.7217  16.8156
    18.2077  18.6814  18.9396  18.9807  19.0856  19.1026  19.5948  19.9512
    20.0422  20.1588  20.3061  20.4481  20.7530  20.9481  21.0089  21.4458
    22.0419  22.1122  22.7328  23.6755  23.9639  24.2193

          k = 0.0578 0.0000 0.0000 (  8981 PWs)   bands (ev):

    -9.7123  -9.6908  -9.6130  -9.5899  -2.1647  -2.0678  -0.2056   0.0962
     2.7309   3.1916   3.9520   3.9583   3.9680   3.9716   4.1001   4.1069
     4.1302   4.1371   7.7598   8.7386  10.6904  10.7199  10.8409  10.8657
    10.9070  11.3023  11.4121  11.5439  11.5551  11.9195  11.9372  12.1050
    12.1214  12.5570  14.0681  14.1496  14.2728  14.3378  14.3960  14.9954
    15.5435  15.8010  15.9048  15.9191  16.3779  16.5551  16.5959  16.6423
    17.9747  18.5216  18.7411  18.9226  18.9593  18.9812  19.4217  19.9982
    20.0277  20.1792  20.2079  20.3498  20.7865  21.0403  21.0466  21.4572
    21.8960  22.1361  22.4716  23.4441  24.1665  24.3332

          k = 0.0385 0.0000 0.0000 (  8989 PWs)   bands (ev):

    -9.7307  -9.7092  -9.6310  -9.6079  -2.1860  -2.0888  -0.2238   0.0792
     2.7213   3.1854   4.0658   4.0724   4.0892   4.0939   4.1283   4.1348
     4.1576   4.1642   7.7288   8.7193  10.6100  10.6358  10.7800  10.8230
    10.8717  11.4077  11.4507  11.5051  11.5165  11.9689  11.9867  12.0433
    12.0596  12.5880  14.2174  14.2855  14.3545  14.4025  14.4587  15.0427
    15.7287  15.8459  15.9552  15.9576  16.4038  16.4479  16.4942  16.5004
    17.7859  18.3571  18.5989  18.8549  18.8680  18.8992  19.2716  19.9473
    20.0459  20.1350  20.2066  20.2761  20.9215  21.0684  21.2098  21.4679
    21.7805  22.1435  22.2231  23.2097  24.3516  24.4268

          k = 0.0193 0.0000 0.0000 (  8967 PWs)   bands (ev):

    -9.7418  -9.7202  -9.6419  -9.6187  -2.1987  -2.1014  -0.2347   0.0690
     2.7151   3.1810   4.1372   4.1435   4.1455   4.1519   4.1645   4.1704
     4.1744   4.1808   7.7092   8.7064  10.5490  10.5741  10.7229  10.7671
    10.8954  11.4805  11.4806  11.4828  11.4921  12.0039  12.0058  12.0207
    12.0220  12.6080  14.1967  14.4320  14.4477  14.4863  14.5023  15.0605
    15.8554  15.8744  15.9777  15.9912  16.3777  16.4035  16.4196  16.4273
    17.6625  18.2378  18.5114  18.7897  18.8292  18.8496  19.1714  19.8735
    20.0814  20.0900  20.2269  20.2304  21.0577  21.0877  21.3898  21.4752
    21.7067  22.0002  22.1437  23.0305  24.4831  24.4892

          k = 0.0000 0.0000 0.0000 (  8957 PWs)   bands (ev):

    -9.7455  -9.7239  -9.6455  -9.6223  -2.2030  -2.1056  -0.2384   0.0656
     2.7129   3.1794   4.1513   4.1576   4.1615   4.1678   4.1801   4.1864
     4.1901   4.1964   7.7025   8.7019  10.5274  10.5521  10.7030  10.7476
    10.9030  11.4723  11.4838  11.4949  11.5064  11.9932  12.0094  12.0165
    12.0327  12.6148  14.1872  14.4641  14.4846  14.5181  14.5387  15.0626
    15.8842  15.9012  15.9853  16.0024  16.3531  16.3713  16.4038  16.4218
    17.6197  18.1942  18.4817  18.7673  18.8152  18.8332  19.1364  19.8454
    20.0749  20.0946  20.2149  20.2343  21.0946  21.1144  21.4778  21.4968
    21.6812  21.8800  22.1431  22.9616  24.5113  24.5309

     Writing all to output data dir ./work/Al2S2.save/
 
     init_run     :      0.29s CPU      0.34s WALL (       1 calls)
     electrons    :    232.14s CPU    282.76s WALL (       1 calls)

     Called by init_run:
     wfcinit      :      0.00s CPU      0.00s WALL (       1 calls)
     potinit      :      0.10s CPU      0.11s WALL (       1 calls)
     hinit0       :      0.12s CPU      0.15s WALL (       1 calls)

     Called by electrons:
     c_bands      :    232.14s CPU    282.76s WALL (       1 calls)
     v_of_rho     :      0.00s CPU      0.01s WALL (       1 calls)
     newd         :      0.04s CPU      0.05s WALL (       1 calls)
     PAW_pot      :      0.09s CPU      0.10s WALL (       1 calls)

     Called by c_bands:
     init_us_2    :      0.05s CPU      0.06s WALL (      91 calls)
     init_us_2:cp :      0.05s CPU      0.06s WALL (      91 calls)
     cegterg      :    227.06s CPU    276.34s WALL (     337 calls)

     Called by *egterg:
     cdiaghg      :     31.85s CPU     32.58s WALL (    6222 calls)
     h_psi        :    122.05s CPU    168.50s WALL (    6559 calls)
     s_psi        :     11.80s CPU     12.07s WALL (    6559 calls)
     g_psi        :      0.35s CPU      0.36s WALL (    6131 calls)

     Called by h_psi:
     h_psi:calbec :     13.19s CPU     16.73s WALL (    6559 calls)
     vloc_psi     :     92.00s CPU    134.17s WALL (    6559 calls)
     add_vuspsi   :     16.01s CPU     16.71s WALL (    6559 calls)

     General routines
     calbec       :     13.17s CPU     16.71s WALL (    6559 calls)
     fft          :      0.00s CPU      0.01s WALL (      12 calls)
     fftw         :     87.81s CPU    128.25s WALL (  457018 calls)
     davcio       :      0.06s CPU      0.08s WALL (     182 calls)
 
     Parallel routines
 
     PWSCF        :   3m53.41s CPU   4m45.39s WALL

 
   This run was terminated on:  15:18:45  18Jun2023            

=------------------------------------------------------------------------------=
   JOB DONE.
=------------------------------------------------------------------------------=
