
     Program BANDS v.7.0 starts on 18Jun2023 at 15:18:48 

     This program is part of the open-source Quantum ESPRESSO suite
     for quantum simulation of materials; please cite
         "P. Giannozzi et al., J. Phys.:Condens. Matter 21 395502 (2009);
         "P. Giannozzi et al., J. Phys.:Condens. Matter 29 465901 (2017);
         "P. Giannozzi et al., J. Chem. Phys. 152 154105 (2020);
          URL http://www.quantum-espresso.org", 
     in publications or presentations arising from this work. More details at
     http://www.quantum-espresso.org/quote

     Parallel version (MPI), running on    16 processors

     MPI processes distributed on     1 nodes
     R & G space division:  proc/nbgrp/npool/nimage =      16
     2745 MiB available memory on the printing compute node when the environment starts
 

     Reading xml data from directory:

     ./work/Al2S2.save/
     Message from routine volume:
     axis vectors are left-handed
     file Al.pbe-n-kjpaw_psl.1.0.0.UPF: wavefunction(s)  3S 3P renormalized
     file S.pbe-n-kjpaw_psl.1.0.0.UPF: wavefunction(s)  3S 3P renormalized

     IMPORTANT: XC functional enforced from input :
     Exchange-correlation= PBE
                           (   1   4   3   4   0   0   0)
     Any further DFT definition will be discarded
     Please, verify this is what you really want

 
     Parallelization info
     --------------------
     sticks:   dense  smooth     PW     G-vecs:    dense   smooth      PW
     Min          39      39     11                 4469     4469     711
     Max          40      40     12                 4473     4473     728
     Sum         625     625    187                71529    71529   11567
 
     Using Slab Decomposition
 
     Reading collected, re-writing distributed wavefunctions
     high-symmetry point:  0.0000 0.0000 0.0000   x coordinate   0.0000
     high-symmetry point:  0.5775 0.3325 0.0000   x coordinate   0.6664
     high-symmetry point:  0.5775 0.0000 0.0000   x coordinate   0.9990
     high-symmetry point:  0.0000 0.0000 0.0000   x coordinate   1.5765

     Plottable bands (eV) written to file AC.bands.gnu
     Bands written to file AC.bands

 **************************************************************************

                    xk=(   0.00000,   0.00000,   0.00000  )

     point group C_s (m)    
     there are  2 classes
     the character table:

       E     s    
A'     1.00  1.00
A''    1.00 -1.00

     the symmetry operations in each class and the name of the first element:

     E        1
                                                                 
     s        2
                                                                 

     Band symmetry, C_s (m)     point group:

     e(  1 -  1) =     -9.74548  eV     1   --> A'             
     e(  2 -  2) =     -9.72391  eV     1   --> A'             
     e(  3 -  3) =     -9.64551  eV     1   --> A'             
     e(  4 -  4) =     -9.62235  eV     1   --> A'             
     e(  5 -  5) =     -2.20301  eV     1   --> A'             
     e(  6 -  6) =     -2.10561  eV     1   --> A'             
     e(  7 -  7) =     -0.23836  eV     1   --> A'             
     e(  8 -  8) =      0.06557  eV     1   --> A'             
     e(  9 -  9) =      2.71294  eV     1   --> A'             
     e( 10 - 10) =      3.17939  eV     1   --> A'             
     e( 11 - 11) =      4.15133  eV     1   --> A''            
     e( 12 - 12) =      4.15760  eV     1   --> A''            
     e( 13 - 13) =      4.16150  eV     1   --> A'             
     e( 14 - 14) =      4.16776  eV     1   --> A'             
     e( 15 - 15) =      4.18005  eV     1   --> A''            
     e( 16 - 16) =      4.18637  eV     1   --> A''            
     e( 17 - 17) =      4.19009  eV     1   --> A'             
     e( 18 - 18) =      4.19640  eV     1   --> A'             
     e( 19 - 19) =      7.70253  eV     1   --> A'             
     e( 20 - 20) =      8.70191  eV     1   --> A'             
     e( 21 - 21) =     10.52741  eV     1   --> A'             
     e( 22 - 22) =     10.55215  eV     1   --> A'             
     e( 23 - 23) =     10.70296  eV     1   --> A'             
     e( 24 - 24) =     10.74763  eV     1   --> A'             
     e( 25 - 25) =     10.90305  eV     1   --> A'             
     e( 26 - 26) =     11.47229  eV     1   --> A''            
     e( 27 - 27) =     11.48376  eV     1   --> A''            
     e( 28 - 28) =     11.49487  eV     1   --> A'             
     e( 29 - 29) =     11.50636  eV     1   --> A'             
     e( 30 - 30) =     11.99323  eV     1   --> A''            
     e( 31 - 31) =     12.00941  eV     1   --> A''            
     e( 32 - 32) =     12.01646  eV     1   --> A'             
     e( 33 - 33) =     12.03268  eV     1   --> A'             
     e( 34 - 34) =     12.61484  eV     1   --> A'             
     e( 35 - 35) =     14.18723  eV     1   --> A'             
     e( 36 - 36) =     14.46407  eV     1   --> A''            
     e( 37 - 37) =     14.48457  eV     1   --> A'             
     e( 38 - 38) =     14.51806  eV     1   --> A''            
     e( 39 - 39) =     14.53865  eV     1   --> A'             
     e( 40 - 40) =     15.06257  eV     1   --> A'             
     e( 41 - 41) =     15.88420  eV     1   --> A''            
     e( 42 - 42) =     15.90124  eV     1   --> A'             
     e( 43 - 43) =     15.98529  eV     1   --> A''            
     e( 44 - 44) =     16.00243  eV     1   --> A'             
     e( 45 - 45) =     16.35315  eV     1   --> A''            
     e( 46 - 46) =     16.37131  eV     1   --> A'             
     e( 47 - 47) =     16.40383  eV     1   --> A''            
     e( 48 - 48) =     16.42180  eV     1   --> A'             
     e( 49 - 49) =     17.61966  eV     1   --> A'             
     e( 50 - 50) =     18.19423  eV     1   --> A'             
     e( 51 - 51) =     18.48171  eV     1   --> A'             
     e( 52 - 52) =     18.76729  eV     1   --> A'             
     e( 53 - 53) =     18.81515  eV     1   --> A'             
     e( 54 - 54) =     18.83324  eV     1   --> A'             
     e( 55 - 55) =     19.13643  eV     1   --> A'             
     e( 56 - 56) =     19.84536  eV     1   --> A'             
     e( 57 - 57) =     20.07486  eV     1   --> A''            
     e( 58 - 58) =     20.09456  eV     1   --> A'             
     e( 59 - 59) =     20.21490  eV     1   --> A''            
     e( 60 - 60) =     20.23426  eV     1   --> A'             
     e( 61 - 61) =     21.09463  eV     1   --> A''            
     e( 62 - 62) =     21.11444  eV     1   --> A'             
     e( 63 - 63) =     21.47776  eV     1   --> A''            
     e( 64 - 64) =     21.49681  eV     1   --> A'             
     e( 65 - 65) =     21.68117  eV     1   --> A'             
     e( 66 - 66) =     21.88000  eV     1   --> A'             
     e( 67 - 67) =     22.14309  eV     1   --> A'             
     e( 68 - 68) =     22.96162  eV     1   --> A'             
     e( 69 - 69) =     24.51126  eV     1   --> A''            
     e( 70 - 70) =     24.53090  eV     1   --> A'             

 **************************************************************************

 **************************************************************************

                    xk=(   0.01925,   0.01108,   0.00000  )

     point group C_1 (1)    
     there are  1 classes
     the character table:

       E    
A      1.00

     the symmetry operations in each class and the name of the first element:

     E        1
                                                                 

     Band symmetry, C_1 (1)     point group:

     e(  1 -  1) =     -9.74056  eV     1   --> A              
     e(  2 -  2) =     -9.71900  eV     1   --> A              
     e(  3 -  3) =     -9.64069  eV     1   --> A              
     e(  4 -  4) =     -9.61755  eV     1   --> A              
     e(  5 -  5) =     -2.19733  eV     1   --> A              
     e(  6 -  6) =     -2.10000  eV     1   --> A              
     e(  7 -  7) =     -0.23350  eV     1   --> A              
     e(  8 -  8) =      0.07012  eV     1   --> A              
     e(  9 -  9) =      2.71576  eV     1   --> A              
     e( 10 - 10) =      3.18146  eV     1   --> A              
     e( 11 - 11) =      4.12568  eV     1   --> A              
     e( 12 - 12) =      4.13200  eV     1   --> A              
     e( 13 - 13) =      4.14718  eV     1   --> A              
     e( 14 - 14) =      4.15271  eV     1   --> A              
     e( 15 - 15) =      4.15347  eV     1   --> A              
     e( 16 - 16) =      4.15836  eV     1   --> A              
     e( 17 - 17) =      4.17598  eV     1   --> A              
     e( 18 - 18) =      4.18230  eV     1   --> A              
     e( 19 - 19) =      7.71145  eV     1   --> A              
     e( 20 - 20) =      8.70793  eV     1   --> A              
     e( 21 - 21) =     10.55625  eV     1   --> A              
     e( 22 - 22) =     10.58139  eV     1   --> A              
     e( 23 - 23) =     10.72951  eV     1   --> A              
     e( 24 - 24) =     10.77359  eV     1   --> A              
     e( 25 - 25) =     10.89271  eV     1   --> A              
     e( 26 - 26) =     11.46351  eV     1   --> A              
     e( 27 - 27) =     11.46845  eV     1   --> A              
     e( 28 - 28) =     11.49387  eV     1   --> A              
     e( 29 - 29) =     11.50337  eV     1   --> A              
     e( 30 - 30) =     11.98986  eV     1   --> A              
     e( 31 - 31) =     12.00677  eV     1   --> A              
     e( 32 - 32) =     12.01995  eV     1   --> A              
     e( 33 - 33) =     12.03619  eV     1   --> A              
     e( 34 - 34) =     12.60568  eV     1   --> A              
     e( 35 - 35) =     14.19947  eV     1   --> A              
     e( 36 - 36) =     14.40810  eV     1   --> A              
     e( 37 - 37) =     14.44880  eV     1   --> A              
     e( 38 - 38) =     14.46343  eV     1   --> A              
     e( 39 - 39) =     14.50444  eV     1   --> A              
     e( 40 - 40) =     15.05920  eV     1   --> A              
     e( 41 - 41) =     15.83501  eV     1   --> A              
     e( 42 - 42) =     15.87686  eV     1   --> A              
     e( 43 - 43) =     15.97357  eV     1   --> A              
     e( 44 - 44) =     15.98903  eV     1   --> A              
     e( 45 - 45) =     16.38642  eV     1   --> A              
     e( 46 - 46) =     16.41239  eV     1   --> A              
     e( 47 - 47) =     16.41447  eV     1   --> A              
     e( 48 - 48) =     16.44082  eV     1   --> A              
     e( 49 - 49) =     17.67625  eV     1   --> A              
     e( 50 - 50) =     18.25182  eV     1   --> A              
     e( 51 - 51) =     18.52109  eV     1   --> A              
     e( 52 - 52) =     18.79697  eV     1   --> A              
     e( 53 - 53) =     18.83367  eV     1   --> A              
     e( 54 - 54) =     18.85498  eV     1   --> A              
     e( 55 - 55) =     19.18276  eV     1   --> A              
     e( 56 - 56) =     19.88227  eV     1   --> A              
     e( 57 - 57) =     20.06984  eV     1   --> A              
     e( 58 - 58) =     20.10247  eV     1   --> A              
     e( 59 - 59) =     20.21711  eV     1   --> A              
     e( 60 - 60) =     20.24305  eV     1   --> A              
     e( 61 - 61) =     21.03429  eV     1   --> A              
     e( 62 - 62) =     21.09183  eV     1   --> A              
     e( 63 - 63) =     21.35913  eV     1   --> A              
     e( 64 - 64) =     21.47954  eV     1   --> A              
     e( 65 - 65) =     21.71485  eV     1   --> A              
     e( 66 - 66) =     22.03020  eV     1   --> A              
     e( 67 - 67) =     22.14374  eV     1   --> A              
     e( 68 - 68) =     23.05199  eV     1   --> A              
     e( 69 - 69) =     24.46043  eV     1   --> A              
     e( 70 - 70) =     24.48925  eV     1   --> A              

 **************************************************************************

 **************************************************************************

                    xk=(   0.03850,   0.02217,   0.00000  )

     Band symmetry, C_1 (1)     point group:

     e(  1 -  1) =     -9.72583  eV     1   --> A              
     e(  2 -  2) =     -9.70430  eV     1   --> A              
     e(  3 -  3) =     -9.62627  eV     1   --> A              
     e(  4 -  4) =     -9.60316  eV     1   --> A              
     e(  5 -  5) =     -2.18032  eV     1   --> A              
     e(  6 -  6) =     -2.08321  eV     1   --> A              
     e(  7 -  7) =     -0.21894  eV     1   --> A              
     e(  8 -  8) =      0.08373  eV     1   --> A              
     e(  9 -  9) =      2.72390  eV     1   --> A              
     e( 10 - 10) =      3.18716  eV     1   --> A              
     e( 11 - 11) =      4.03258  eV     1   --> A              
     e( 12 - 12) =      4.03885  eV     1   --> A              
     e( 13 - 13) =      4.05419  eV     1   --> A              
     e( 14 - 14) =      4.05798  eV     1   --> A              
     e( 15 - 15) =      4.12343  eV     1   --> A              
     e( 16 - 16) =      4.12976  eV     1   --> A              
     e( 17 - 17) =      4.15297  eV     1   --> A              
     e( 18 - 18) =      4.15936  eV     1   --> A              
     e( 19 - 19) =      7.73726  eV     1   --> A              
     e( 20 - 20) =      8.72473  eV     1   --> A              
     e( 21 - 21) =     10.63718  eV     1   --> A              
     e( 22 - 22) =     10.66245  eV     1   --> A              
     e( 23 - 23) =     10.80481  eV     1   --> A              
     e( 24 - 24) =     10.84741  eV     1   --> A              
     e( 25 - 25) =     10.85972  eV     1   --> A              
     e( 26 - 26) =     11.36758  eV     1   --> A              
     e( 27 - 27) =     11.42823  eV     1   --> A              
     e( 28 - 28) =     11.52479  eV     1   --> A              
     e( 29 - 29) =     11.53662  eV     1   --> A              
     e( 30 - 30) =     11.94427  eV     1   --> A              
     e( 31 - 31) =     11.96372  eV     1   --> A              
     e( 32 - 32) =     12.06971  eV     1   --> A              
     e( 33 - 33) =     12.08396  eV     1   --> A              
     e( 34 - 34) =     12.57969  eV     1   --> A              
     e( 35 - 35) =     14.21422  eV     1   --> A              
     e( 36 - 36) =     14.23742  eV     1   --> A              
     e( 37 - 37) =     14.29581  eV     1   --> A              
     e( 38 - 38) =     14.37895  eV     1   --> A              
     e( 39 - 39) =     14.44800  eV     1   --> A              
     e( 40 - 40) =     15.03653  eV     1   --> A              
     e( 41 - 41) =     15.67355  eV     1   --> A              
     e( 42 - 42) =     15.83721  eV     1   --> A              
     e( 43 - 43) =     15.93653  eV     1   --> A              
     e( 44 - 44) =     15.95177  eV     1   --> A              
     e( 45 - 45) =     16.41045  eV     1   --> A              
     e( 46 - 46) =     16.46424  eV     1   --> A              
     e( 47 - 47) =     16.50632  eV     1   --> A              
     e( 48 - 48) =     16.55609  eV     1   --> A              
     e( 49 - 49) =     17.83791  eV     1   --> A              
     e( 50 - 50) =     18.40651  eV     1   --> A              
     e( 51 - 51) =     18.63596  eV     1   --> A              
     e( 52 - 52) =     18.88263  eV     1   --> A              
     e( 53 - 53) =     18.88484  eV     1   --> A              
     e( 54 - 54) =     18.92008  eV     1   --> A              
     e( 55 - 55) =     19.31294  eV     1   --> A              
     e( 56 - 56) =     19.97323  eV     1   --> A              
     e( 57 - 57) =     20.02568  eV     1   --> A              
     e( 58 - 58) =     20.15453  eV     1   --> A              
     e( 59 - 59) =     20.20232  eV     1   --> A              
     e( 60 - 60) =     20.29823  eV     1   --> A              
     e( 61 - 61) =     20.87030  eV     1   --> A              
     e( 62 - 62) =     21.06504  eV     1   --> A              
     e( 63 - 63) =     21.15374  eV     1   --> A              
     e( 64 - 64) =     21.46954  eV     1   --> A              
     e( 65 - 65) =     21.81171  eV     1   --> A              
     e( 66 - 66) =     22.14211  eV     1   --> A              
     e( 67 - 67) =     22.29609  eV     1   --> A              
     e( 68 - 68) =     23.27933  eV     1   --> A              
     e( 69 - 69) =     24.30237  eV     1   --> A              
     e( 70 - 70) =     24.39471  eV     1   --> A              

 **************************************************************************

 **************************************************************************

                    xk=(   0.05775,   0.03325,   0.00000  )

     Band symmetry, C_1 (1)     point group:

     e(  1 -  1) =     -9.70135  eV     1   --> A              
     e(  2 -  2) =     -9.67986  eV     1   --> A              
     e(  3 -  3) =     -9.60229  eV     1   --> A              
     e(  4 -  4) =     -9.57925  eV     1   --> A              
     e(  5 -  5) =     -2.15203  eV     1   --> A              
     e(  6 -  6) =     -2.05532  eV     1   --> A              
     e(  7 -  7) =     -0.19479  eV     1   --> A              
     e(  8 -  8) =      0.10626  eV     1   --> A              
     e(  9 -  9) =      2.73612  eV     1   --> A              
     e( 10 - 10) =      3.19448  eV     1   --> A              
     e( 11 - 11) =      3.88618  eV     1   --> A              
     e( 12 - 12) =      3.89119  eV     1   --> A              
     e( 13 - 13) =      3.89784  eV     1   --> A              
     e( 14 - 14) =      3.89962  eV     1   --> A              
     e( 15 - 15) =      4.08468  eV     1   --> A              
     e( 16 - 16) =      4.09111  eV     1   --> A              
     e( 17 - 17) =      4.11539  eV     1   --> A              
     e( 18 - 18) =      4.12189  eV     1   --> A              
     e( 19 - 19) =      7.77763  eV     1   --> A              
     e( 20 - 20) =      8.74926  eV     1   --> A              
     e( 21 - 21) =     10.74612  eV     1   --> A              
     e( 22 - 22) =     10.75400  eV     1   --> A              
     e( 23 - 23) =     10.82937  eV     1   --> A              
     e( 24 - 24) =     10.91645  eV     1   --> A              
     e( 25 - 25) =     10.95715  eV     1   --> A              
     e( 26 - 26) =     11.22210  eV     1   --> A              
     e( 27 - 27) =     11.37036  eV     1   --> A              
     e( 28 - 28) =     11.58069  eV     1   --> A              
     e( 29 - 29) =     11.59844  eV     1   --> A              
     e( 30 - 30) =     11.87053  eV     1   --> A              
     e( 31 - 31) =     11.89426  eV     1   --> A              
     e( 32 - 32) =     12.16178  eV     1   --> A              
     e( 33 - 33) =     12.16448  eV     1   --> A              
     e( 34 - 34) =     12.54547  eV     1   --> A              
     e( 35 - 35) =     13.97737  eV     1   --> A              
     e( 36 - 36) =     14.08579  eV     1   --> A              
     e( 37 - 37) =     14.21765  eV     1   --> A              
     e( 38 - 38) =     14.25804  eV     1   --> A              
     e( 39 - 39) =     14.40143  eV     1   --> A              
     e( 40 - 40) =     14.99635  eV     1   --> A              
     e( 41 - 41) =     15.44674  eV     1   --> A              
     e( 42 - 42) =     15.77365  eV     1   --> A              
     e( 43 - 43) =     15.87759  eV     1   --> A              
     e( 44 - 44) =     15.89362  eV     1   --> A              
     e( 45 - 45) =     16.41693  eV     1   --> A              
     e( 46 - 46) =     16.55534  eV     1   --> A              
     e( 47 - 47) =     16.59501  eV     1   --> A              
     e( 48 - 48) =     16.77170  eV     1   --> A              
     e( 49 - 49) =     18.08189  eV     1   --> A              
     e( 50 - 50) =     18.61807  eV     1   --> A              
     e( 51 - 51) =     18.81630  eV     1   --> A              
     e( 52 - 52) =     18.95695  eV     1   --> A              
     e( 53 - 53) =     19.01766  eV     1   --> A              
     e( 54 - 54) =     19.02630  eV     1   --> A              
     e( 55 - 55) =     19.49998  eV     1   --> A              
     e( 56 - 56) =     19.96759  eV     1   --> A              
     e( 57 - 57) =     20.04138  eV     1   --> A              
     e( 58 - 58) =     20.14514  eV     1   --> A              
     e( 59 - 59) =     20.28418  eV     1   --> A              
     e( 60 - 60) =     20.38327  eV     1   --> A              
     e( 61 - 61) =     20.74667  eV     1   --> A              
     e( 62 - 62) =     20.97538  eV     1   --> A              
     e( 63 - 63) =     21.03672  eV     1   --> A              
     e( 64 - 64) =     21.45991  eV     1   --> A              
     e( 65 - 65) =     21.96184  eV     1   --> A              
     e( 66 - 66) =     22.12815  eV     1   --> A              
     e( 67 - 67) =     22.58973  eV     1   --> A              
     e( 68 - 68) =     23.56833  eV     1   --> A              
     e( 69 - 69) =     24.10240  eV     1   --> A              
     e( 70 - 70) =     24.23721  eV     1   --> A              

 **************************************************************************

 **************************************************************************

                    xk=(   0.07701,   0.04434,   0.00000  )

     Band symmetry, C_1 (1)     point group:

     e(  1 -  1) =     -9.66722  eV     1   --> A              
     e(  2 -  2) =     -9.64581  eV     1   --> A              
     e(  3 -  3) =     -9.56888  eV     1   --> A              
     e(  4 -  4) =     -9.54592  eV     1   --> A              
     e(  5 -  5) =     -2.11261  eV     1   --> A              
     e(  6 -  6) =     -2.01647  eV     1   --> A              
     e(  7 -  7) =     -0.16121  eV     1   --> A              
     e(  8 -  8) =      0.13748  eV     1   --> A              
     e(  9 -  9) =      2.74949  eV     1   --> A              
     e( 10 - 10) =      3.19704  eV     1   --> A              
     e( 11 - 11) =      3.68963  eV     1   --> A              
     e( 12 - 12) =      3.69294  eV     1   --> A              
     e( 13 - 13) =      3.70528  eV     1   --> A              
     e( 14 - 14) =      3.70666  eV     1   --> A              
     e( 15 - 15) =      4.03007  eV     1   --> A              
     e( 16 - 16) =      4.03666  eV     1   --> A              
     e( 17 - 17) =      4.06250  eV     1   --> A              
     e( 18 - 18) =      4.06916  eV     1   --> A              
     e( 19 - 19) =      7.82988  eV     1   --> A              
     e( 20 - 20) =      8.77801  eV     1   --> A              
     e( 21 - 21) =     10.66400  eV     1   --> A              
     e( 22 - 22) =     10.86114  eV     1   --> A              
     e( 23 - 23) =     10.94424  eV     1   --> A              
     e( 24 - 24) =     11.04593  eV     1   --> A              
     e( 25 - 25) =     11.06723  eV     1   --> A              
     e( 26 - 26) =     11.08402  eV     1   --> A              
     e( 27 - 27) =     11.30808  eV     1   --> A              
     e( 28 - 28) =     11.65178  eV     1   --> A              
     e( 29 - 29) =     11.68938  eV     1   --> A              
     e( 30 - 30) =     11.78040  eV     1   --> A              
     e( 31 - 31) =     11.81090  eV     1   --> A              
     e( 32 - 32) =     12.23993  eV     1   --> A              
     e( 33 - 33) =     12.29956  eV     1   --> A              
     e( 34 - 34) =     12.54417  eV     1   --> A              
     e( 35 - 35) =     13.71215  eV     1   --> A              
     e( 36 - 36) =     13.87167  eV     1   --> A              
     e( 37 - 37) =     14.09862  eV     1   --> A              
     e( 38 - 38) =     14.11714  eV     1   --> A              
     e( 39 - 39) =     14.41910  eV     1   --> A              
     e( 40 - 40) =     14.95528  eV     1   --> A              
     e( 41 - 41) =     15.18916  eV     1   --> A              
     e( 42 - 42) =     15.68648  eV     1   --> A              
     e( 43 - 43) =     15.80282  eV     1   --> A              
     e( 44 - 44) =     15.81893  eV     1   --> A              
     e( 45 - 45) =     16.43931  eV     1   --> A              
     e( 46 - 46) =     16.64499  eV     1   --> A              
     e( 47 - 47) =     16.67940  eV     1   --> A              
     e( 48 - 48) =     17.04139  eV     1   --> A              
     e( 49 - 49) =     18.37700  eV     1   --> A              
     e( 50 - 50) =     18.83848  eV     1   --> A              
     e( 51 - 51) =     19.03204  eV     1   --> A              
     e( 52 - 52) =     19.04255  eV     1   --> A              
     e( 53 - 53) =     19.15981  eV     1   --> A              
     e( 54 - 54) =     19.20187  eV     1   --> A              
     e( 55 - 55) =     19.70163  eV     1   --> A              
     e( 56 - 56) =     19.92109  eV     1   --> A              
     e( 57 - 57) =     19.98800  eV     1   --> A              
     e( 58 - 58) =     20.11268  eV     1   --> A              
     e( 59 - 59) =     20.43672  eV     1   --> A              
     e( 60 - 60) =     20.48413  eV     1   --> A              
     e( 61 - 61) =     20.79068  eV     1   --> A              
     e( 62 - 62) =     20.85426  eV     1   --> A              
     e( 63 - 63) =     21.03531  eV     1   --> A              
     e( 64 - 64) =     21.47265  eV     1   --> A              
     e( 65 - 65) =     22.08822  eV     1   --> A              
     e( 66 - 66) =     22.15332  eV     1   --> A              
     e( 67 - 67) =     22.90038  eV     1   --> A              
     e( 68 - 68) =     23.86304  eV     1   --> A              
     e( 69 - 69) =     23.91521  eV     1   --> A              
     e( 70 - 70) =     24.02708  eV     1   --> A              

 **************************************************************************

 **************************************************************************

                    xk=(   0.09626,   0.05542,   0.00000  )

     Band symmetry, C_1 (1)     point group:

     e(  1 -  1) =     -9.62359  eV     1   --> A              
     e(  2 -  2) =     -9.60228  eV     1   --> A              
     e(  3 -  3) =     -9.52618  eV     1   --> A              
     e(  4 -  4) =     -9.50334  eV     1   --> A              
     e(  5 -  5) =     -2.06222  eV     1   --> A              
     e(  6 -  6) =     -1.96686  eV     1   --> A              
     e(  7 -  7) =     -0.11846  eV     1   --> A              
     e(  8 -  8) =      0.17703  eV     1   --> A              
     e(  9 -  9) =      2.75655  eV     1   --> A              
     e( 10 - 10) =      3.17043  eV     1   --> A              
     e( 11 - 11) =      3.44679  eV     1   --> A              
     e( 12 - 12) =      3.45356  eV     1   --> A              
     e( 13 - 13) =      3.49566  eV     1   --> A              
     e( 14 - 14) =      3.52170  eV     1   --> A              
     e( 15 - 15) =      3.95918  eV     1   --> A              
     e( 16 - 16) =      3.96598  eV     1   --> A              
     e( 17 - 17) =      3.99398  eV     1   --> A              
     e( 18 - 18) =      4.00084  eV     1   --> A              
     e( 19 - 19) =      7.89178  eV     1   --> A              
     e( 20 - 20) =      8.80799  eV     1   --> A              
     e( 21 - 21) =     10.51766  eV     1   --> A              
     e( 22 - 22) =     10.77237  eV     1   --> A              
     e( 23 - 23) =     11.07989  eV     1   --> A              
     e( 24 - 24) =     11.08592  eV     1   --> A              
     e( 25 - 25) =     11.17083  eV     1   --> A              
     e( 26 - 26) =     11.20354  eV     1   --> A              
     e( 27 - 27) =     11.24236  eV     1   --> A              
     e( 28 - 28) =     11.68789  eV     1   --> A              
     e( 29 - 29) =     11.71369  eV     1   --> A              
     e( 30 - 30) =     11.72992  eV     1   --> A              
     e( 31 - 31) =     11.80382  eV     1   --> A              
     e( 32 - 32) =     12.22385  eV     1   --> A              
     e( 33 - 33) =     12.48280  eV     1   --> A              
     e( 34 - 34) =     12.66806  eV     1   --> A              
     e( 35 - 35) =     13.46744  eV     1   --> A              
     e( 36 - 36) =     13.66528  eV     1   --> A              
     e( 37 - 37) =     13.94466  eV     1   --> A              
     e( 38 - 38) =     13.98474  eV     1   --> A              
     e( 39 - 39) =     14.45956  eV     1   --> A              
     e( 40 - 40) =     14.92018  eV     1   --> A              
     e( 41 - 41) =     14.92739  eV     1   --> A              
     e( 42 - 42) =     15.57451  eV     1   --> A              
     e( 43 - 43) =     15.70224  eV     1   --> A              
     e( 44 - 44) =     15.75264  eV     1   --> A              
     e( 45 - 45) =     16.47791  eV     1   --> A              
     e( 46 - 46) =     16.72657  eV     1   --> A              
     e( 47 - 47) =     16.74730  eV     1   --> A              
     e( 48 - 48) =     17.33934  eV     1   --> A              
     e( 49 - 49) =     18.68693  eV     1   --> A              
     e( 50 - 50) =     19.02249  eV     1   --> A              
     e( 51 - 51) =     19.09058  eV     1   --> A              
     e( 52 - 52) =     19.26921  eV     1   --> A              
     e( 53 - 53) =     19.27033  eV     1   --> A              
     e( 54 - 54) =     19.43154  eV     1   --> A              
     e( 55 - 55) =     19.88092  eV     1   --> A              
     e( 56 - 56) =     19.91900  eV     1   --> A              
     e( 57 - 57) =     19.93138  eV     1   --> A              
     e( 58 - 58) =     20.10898  eV     1   --> A              
     e( 59 - 59) =     20.58734  eV     1   --> A              
     e( 60 - 60) =     20.62325  eV     1   --> A              
     e( 61 - 61) =     20.75063  eV     1   --> A              
     e( 62 - 62) =     20.91439  eV     1   --> A              
     e( 63 - 63) =     21.15161  eV     1   --> A              
     e( 64 - 64) =     21.56625  eV     1   --> A              
     e( 65 - 65) =     22.01468  eV     1   --> A              
     e( 66 - 66) =     22.37058  eV     1   --> A              
     e( 67 - 67) =     23.22757  eV     1   --> A              
     e( 68 - 68) =     23.77644  eV     1   --> A              
     e( 69 - 69) =     23.79091  eV     1   --> A              
     e( 70 - 70) =     24.12407  eV     1   --> A              

 **************************************************************************

 **************************************************************************

                    xk=(   0.11551,   0.06651,   0.00000  )

     Band symmetry, C_1 (1)     point group:

     e(  1 -  1) =     -9.57067  eV     1   --> A              
     e(  2 -  2) =     -9.54947  eV     1   --> A              
     e(  3 -  3) =     -9.47440  eV     1   --> A              
     e(  4 -  4) =     -9.45170  eV     1   --> A              
     e(  5 -  5) =     -2.00114  eV     1   --> A              
     e(  6 -  6) =     -1.90680  eV     1   --> A              
     e(  7 -  7) =     -0.06691  eV     1   --> A              
     e(  8 -  8) =      0.22437  eV     1   --> A              
     e(  9 -  9) =      2.73628  eV     1   --> A              
     e( 10 - 10) =      3.04497  eV     1   --> A              
     e( 11 - 11) =      3.17750  eV     1   --> A              
     e( 12 - 12) =      3.18806  eV     1   --> A              
     e( 13 - 13) =      3.29365  eV     1   --> A              
     e( 14 - 14) =      3.41576  eV     1   --> A              
     e( 15 - 15) =      3.87168  eV     1   --> A              
     e( 16 - 16) =      3.87876  eV     1   --> A              
     e( 17 - 17) =      3.90958  eV     1   --> A              
     e( 18 - 18) =      3.91670  eV     1   --> A              
     e( 19 - 19) =      7.96179  eV     1   --> A              
     e( 20 - 20) =      8.83698  eV     1   --> A              
     e( 21 - 21) =     10.33954  eV     1   --> A              
     e( 22 - 22) =     10.55985  eV     1   --> A              
     e( 23 - 23) =     11.13072  eV     1   --> A              
     e( 24 - 24) =     11.20236  eV     1   --> A              
     e( 25 - 25) =     11.23349  eV     1   --> A              
     e( 26 - 26) =     11.26139  eV     1   --> A              
     e( 27 - 27) =     11.28276  eV     1   --> A              
     e( 28 - 28) =     11.61772  eV     1   --> A              
     e( 29 - 29) =     11.68080  eV     1   --> A              
     e( 30 - 30) =     11.71980  eV     1   --> A              
     e( 31 - 31) =     11.92352  eV     1   --> A              
     e( 32 - 32) =     12.12956  eV     1   --> A              
     e( 33 - 33) =     12.69992  eV     1   --> A              
     e( 34 - 34) =     12.90481  eV     1   --> A              
     e( 35 - 35) =     13.26705  eV     1   --> A              
     e( 36 - 36) =     13.44925  eV     1   --> A              
     e( 37 - 37) =     13.87160  eV     1   --> A              
     e( 38 - 38) =     13.88974  eV     1   --> A              
     e( 39 - 39) =     14.49739  eV     1   --> A              
     e( 40 - 40) =     14.68605  eV     1   --> A              
     e( 41 - 41) =     14.89033  eV     1   --> A              
     e( 42 - 42) =     15.43722  eV     1   --> A              
     e( 43 - 43) =     15.57956  eV     1   --> A              
     e( 44 - 44) =     15.70846  eV     1   --> A              
     e( 45 - 45) =     16.52775  eV     1   --> A              
     e( 46 - 46) =     16.78999  eV     1   --> A              
     e( 47 - 47) =     16.79643  eV     1   --> A              
     e( 48 - 48) =     17.63984  eV     1   --> A              
     e( 49 - 49) =     18.92429  eV     1   --> A              
     e( 50 - 50) =     19.12923  eV     1   --> A              
     e( 51 - 51) =     19.15885  eV     1   --> A              
     e( 52 - 52) =     19.32872  eV     1   --> A              
     e( 53 - 53) =     19.41404  eV     1   --> A              
     e( 54 - 54) =     19.63873  eV     1   --> A              
     e( 55 - 55) =     20.01579  eV     1   --> A              
     e( 56 - 56) =     20.04276  eV     1   --> A              
     e( 57 - 57) =     20.08107  eV     1   --> A              
     e( 58 - 58) =     20.20243  eV     1   --> A              
     e( 59 - 59) =     20.63019  eV     1   --> A              
     e( 60 - 60) =     20.68158  eV     1   --> A              
     e( 61 - 61) =     20.80971  eV     1   --> A              
     e( 62 - 62) =     20.97215  eV     1   --> A              
     e( 63 - 63) =     21.42223  eV     1   --> A              
     e( 64 - 64) =     21.80406  eV     1   --> A              
     e( 65 - 65) =     21.92475  eV     1   --> A              
     e( 66 - 66) =     22.58605  eV     1   --> A              
     e( 67 - 67) =     23.53255  eV     1   --> A              
     e( 68 - 68) =     23.57176  eV     1   --> A              
     e( 69 - 69) =     23.72162  eV     1   --> A              
     e( 70 - 70) =     23.88771  eV     1   --> A              

 **************************************************************************

 **************************************************************************

                    xk=(   0.13476,   0.07759,   0.00000  )

     Band symmetry, C_1 (1)     point group:

     e(  1 -  1) =     -9.50870  eV     1   --> A              
     e(  2 -  2) =     -9.48765  eV     1   --> A              
     e(  3 -  3) =     -9.41378  eV     1   --> A              
     e(  4 -  4) =     -9.39126  eV     1   --> A              
     e(  5 -  5) =     -1.92971  eV     1   --> A              
     e(  6 -  6) =     -1.83668  eV     1   --> A              
     e(  7 -  7) =     -0.00705  eV     1   --> A              
     e(  8 -  8) =      0.27873  eV     1   --> A              
     e(  9 -  9) =      2.64023  eV     1   --> A              
     e( 10 - 10) =      2.81406  eV     1   --> A              
     e( 11 - 11) =      2.89100  eV     1   --> A              
     e( 12 - 12) =      2.90585  eV     1   --> A              
     e( 13 - 13) =      3.15632  eV     1   --> A              
     e( 14 - 14) =      3.40240  eV     1   --> A              
     e( 15 - 15) =      3.76740  eV     1   --> A              
     e( 16 - 16) =      3.77492  eV     1   --> A              
     e( 17 - 17) =      3.80919  eV     1   --> A              
     e( 18 - 18) =      3.81662  eV     1   --> A              
     e( 19 - 19) =      8.03882  eV     1   --> A              
     e( 20 - 20) =      8.86330  eV     1   --> A              
     e( 21 - 21) =     10.14096  eV     1   --> A              
     e( 22 - 22) =     10.32867  eV     1   --> A              
     e( 23 - 23) =     11.01443  eV     1   --> A              
     e( 24 - 24) =     11.27610  eV     1   --> A              
     e( 25 - 25) =     11.28720  eV     1   --> A              
     e( 26 - 26) =     11.31210  eV     1   --> A              
     e( 27 - 27) =     11.34618  eV     1   --> A              
     e( 28 - 28) =     11.60603  eV     1   --> A              
     e( 29 - 29) =     11.63366  eV     1   --> A              
     e( 30 - 30) =     11.70082  eV     1   --> A              
     e( 31 - 31) =     12.00942  eV     1   --> A              
     e( 32 - 32) =     12.02794  eV     1   --> A              
     e( 33 - 33) =     12.91672  eV     1   --> A              
     e( 34 - 34) =     13.09579  eV     1   --> A              
     e( 35 - 35) =     13.20149  eV     1   --> A              
     e( 36 - 36) =     13.21430  eV     1   --> A              
     e( 37 - 37) =     13.89818  eV     1   --> A              
     e( 38 - 38) =     13.92871  eV     1   --> A              
     e( 39 - 39) =     14.49685  eV     1   --> A              
     e( 40 - 40) =     14.53321  eV     1   --> A              
     e( 41 - 41) =     14.86660  eV     1   --> A              
     e( 42 - 42) =     15.27854  eV     1   --> A              
     e( 43 - 43) =     15.44598  eV     1   --> A              
     e( 44 - 44) =     15.69431  eV     1   --> A              
     e( 45 - 45) =     16.57993  eV     1   --> A              
     e( 46 - 46) =     16.80136  eV     1   --> A              
     e( 47 - 47) =     16.85356  eV     1   --> A              
     e( 48 - 48) =     17.91098  eV     1   --> A              
     e( 49 - 49) =     18.91089  eV     1   --> A              
     e( 50 - 50) =     19.18046  eV     1   --> A              
     e( 51 - 51) =     19.25803  eV     1   --> A              
     e( 52 - 52) =     19.45115  eV     1   --> A              
     e( 53 - 53) =     19.55949  eV     1   --> A              
     e( 54 - 54) =     19.73277  eV     1   --> A              
     e( 55 - 55) =     20.21255  eV     1   --> A              
     e( 56 - 56) =     20.24349  eV     1   --> A              
     e( 57 - 57) =     20.38380  eV     1   --> A              
     e( 58 - 58) =     20.46106  eV     1   --> A              
     e( 59 - 59) =     20.49451  eV     1   --> A              
     e( 60 - 60) =     20.75664  eV     1   --> A              
     e( 61 - 61) =     20.93478  eV     1   --> A              
     e( 62 - 62) =     20.97510  eV     1   --> A              
     e( 63 - 63) =     21.80606  eV     1   --> A              
     e( 64 - 64) =     21.88295  eV     1   --> A              
     e( 65 - 65) =     22.15513  eV     1   --> A              
     e( 66 - 66) =     22.74068  eV     1   --> A              
     e( 67 - 67) =     23.26208  eV     1   --> A              
     e( 68 - 68) =     23.73410  eV     1   --> A              
     e( 69 - 69) =     23.73764  eV     1   --> A              
     e( 70 - 70) =     23.93125  eV     1   --> A              

 **************************************************************************

 **************************************************************************

                    xk=(   0.15401,   0.08868,   0.00000  )

     Band symmetry, C_1 (1)     point group:

     e(  1 -  1) =     -9.43799  eV     1   --> A              
     e(  2 -  2) =     -9.41711  eV     1   --> A              
     e(  3 -  3) =     -9.34465  eV     1   --> A              
     e(  4 -  4) =     -9.32234  eV     1   --> A              
     e(  5 -  5) =     -1.84842  eV     1   --> A              
     e(  6 -  6) =     -1.75707  eV     1   --> A              
     e(  7 -  7) =      0.06037  eV     1   --> A              
     e(  8 -  8) =      0.33891  eV     1   --> A              
     e(  9 -  9) =      2.44272  eV     1   --> A              
     e( 10 - 10) =      2.54239  eV     1   --> A              
     e( 11 - 11) =      2.59479  eV     1   --> A              
     e( 12 - 12) =      2.61485  eV     1   --> A              
     e( 13 - 13) =      3.11599  eV     1   --> A              
     e( 14 - 14) =      3.42322  eV     1   --> A              
     e( 15 - 15) =      3.64645  eV     1   --> A              
     e( 16 - 16) =      3.65486  eV     1   --> A              
     e( 17 - 17) =      3.69290  eV     1   --> A              
     e( 18 - 18) =      3.70070  eV     1   --> A              
     e( 19 - 19) =      8.12195  eV     1   --> A              
     e( 20 - 20) =      8.88543  eV     1   --> A              
     e( 21 - 21) =      9.92947  eV     1   --> A              
     e( 22 - 22) =     10.09119  eV     1   --> A              
     e( 23 - 23) =     10.84619  eV     1   --> A              
     e( 24 - 24) =     11.22282  eV     1   --> A              
     e( 25 - 25) =     11.23383  eV     1   --> A              
     e( 26 - 26) =     11.33629  eV     1   --> A              
     e( 27 - 27) =     11.46242  eV     1   --> A              
     e( 28 - 28) =     11.53386  eV     1   --> A              
     e( 29 - 29) =     11.61557  eV     1   --> A              
     e( 30 - 30) =     11.77993  eV     1   --> A              
     e( 31 - 31) =     11.91597  eV     1   --> A              
     e( 32 - 32) =     12.11315  eV     1   --> A              
     e( 33 - 33) =     12.91973  eV     1   --> A              
     e( 34 - 34) =     12.97538  eV     1   --> A              
     e( 35 - 35) =     13.07022  eV     1   --> A              
     e( 36 - 36) =     13.52447  eV     1   --> A              
     e( 37 - 37) =     14.01471  eV     1   --> A              
     e( 38 - 38) =     14.09490  eV     1   --> A              
     e( 39 - 39) =     14.40253  eV     1   --> A              
     e( 40 - 40) =     14.59356  eV     1   --> A              
     e( 41 - 41) =     14.86272  eV     1   --> A              
     e( 42 - 42) =     15.10784  eV     1   --> A              
     e( 43 - 43) =     15.32247  eV     1   --> A              
     e( 44 - 44) =     15.71930  eV     1   --> A              
     e( 45 - 45) =     16.62025  eV     1   --> A              
     e( 46 - 46) =     16.77708  eV     1   --> A              
     e( 47 - 47) =     16.90480  eV     1   --> A              
     e( 48 - 48) =     18.11800  eV     1   --> A              
     e( 49 - 49) =     18.78892  eV     1   --> A              
     e( 50 - 50) =     19.29591  eV     1   --> A              
     e( 51 - 51) =     19.32438  eV     1   --> A              
     e( 52 - 52) =     19.44612  eV     1   --> A              
     e( 53 - 53) =     19.75857  eV     1   --> A              
     e( 54 - 54) =     19.90698  eV     1   --> A              
     e( 55 - 55) =     20.30742  eV     1   --> A              
     e( 56 - 56) =     20.44720  eV     1   --> A              
     e( 57 - 57) =     20.46086  eV     1   --> A              
     e( 58 - 58) =     20.71900  eV     1   --> A              
     e( 59 - 59) =     20.75194  eV     1   --> A              
     e( 60 - 60) =     20.84440  eV     1   --> A              
     e( 61 - 61) =     21.00467  eV     1   --> A              
     e( 62 - 62) =     21.01954  eV     1   --> A              
     e( 63 - 63) =     21.96538  eV     1   --> A              
     e( 64 - 64) =     22.25713  eV     1   --> A              
     e( 65 - 65) =     22.56498  eV     1   --> A              
     e( 66 - 66) =     22.76925  eV     1   --> A              
     e( 67 - 67) =     22.96335  eV     1   --> A              
     e( 68 - 68) =     23.79256  eV     1   --> A              
     e( 69 - 69) =     23.81927  eV     1   --> A              
     e( 70 - 70) =     24.30013  eV     1   --> A              

 **************************************************************************

 **************************************************************************

                    xk=(   0.17326,   0.09976,   0.00000  )

     Band symmetry, C_1 (1)     point group:

     e(  1 -  1) =     -9.35892  eV     1   --> A              
     e(  2 -  2) =     -9.33825  eV     1   --> A              
     e(  3 -  3) =     -9.26737  eV     1   --> A              
     e(  4 -  4) =     -9.24532  eV     1   --> A              
     e(  5 -  5) =     -1.75793  eV     1   --> A              
     e(  6 -  6) =     -1.66875  eV     1   --> A              
     e(  7 -  7) =      0.13424  eV     1   --> A              
     e(  8 -  8) =      0.40301  eV     1   --> A              
     e(  9 -  9) =      2.18843  eV     1   --> A              
     e( 10 - 10) =      2.25777  eV     1   --> A              
     e( 11 - 11) =      2.29526  eV     1   --> A              
     e( 12 - 12) =      2.32225  eV     1   --> A              
     e( 13 - 13) =      3.13313  eV     1   --> A              
     e( 14 - 14) =      3.45106  eV     1   --> A              
     e( 15 - 15) =      3.50945  eV     1   --> A              
     e( 16 - 16) =      3.52360  eV     1   --> A              
     e( 17 - 17) =      3.56109  eV     1   --> A              
     e( 18 - 18) =      3.56930  eV     1   --> A              
     e( 19 - 19) =      8.21014  eV     1   --> A              
     e( 20 - 20) =      8.90183  eV     1   --> A              
     e( 21 - 21) =      9.70954  eV     1   --> A              
     e( 22 - 22) =      9.85077  eV     1   --> A              
     e( 23 - 23) =     10.63637  eV     1   --> A              
     e( 24 - 24) =     11.13085  eV     1   --> A              
     e( 25 - 25) =     11.14911  eV     1   --> A              
     e( 26 - 26) =     11.16271  eV     1   --> A              
     e( 27 - 27) =     11.53182  eV     1   --> A              
     e( 28 - 28) =     11.58028  eV     1   --> A              
     e( 29 - 29) =     11.60441  eV     1   --> A              
     e( 30 - 30) =     11.88468  eV     1   --> A              
     e( 31 - 31) =     11.93183  eV     1   --> A              
     e( 32 - 32) =     12.18993  eV     1   --> A              
     e( 33 - 33) =     12.73623  eV     1   --> A              
     e( 34 - 34) =     12.74848  eV     1   --> A              
     e( 35 - 35) =     13.10141  eV     1   --> A              
     e( 36 - 36) =     13.83240  eV     1   --> A              
     e( 37 - 37) =     14.12705  eV     1   --> A              
     e( 38 - 38) =     14.28010  eV     1   --> A              
     e( 39 - 39) =     14.40785  eV     1   --> A              
     e( 40 - 40) =     14.75610  eV     1   --> A              
     e( 41 - 41) =     14.93414  eV     1   --> A              
     e( 42 - 42) =     14.94583  eV     1   --> A              
     e( 43 - 43) =     15.26205  eV     1   --> A              
     e( 44 - 44) =     15.79534  eV     1   --> A              
     e( 45 - 45) =     16.63068  eV     1   --> A              
     e( 46 - 46) =     16.71638  eV     1   --> A              
     e( 47 - 47) =     16.96544  eV     1   --> A              
     e( 48 - 48) =     18.25025  eV     1   --> A              
     e( 49 - 49) =     18.67711  eV     1   --> A              
     e( 50 - 50) =     19.35214  eV     1   --> A              
     e( 51 - 51) =     19.43366  eV     1   --> A              
     e( 52 - 52) =     19.49722  eV     1   --> A              
     e( 53 - 53) =     19.77476  eV     1   --> A              
     e( 54 - 54) =     20.17513  eV     1   --> A              
     e( 55 - 55) =     20.27373  eV     1   --> A              
     e( 56 - 56) =     20.55004  eV     1   --> A              
     e( 57 - 57) =     20.65176  eV     1   --> A              
     e( 58 - 58) =     20.71232  eV     1   --> A              
     e( 59 - 59) =     20.76008  eV     1   --> A              
     e( 60 - 60) =     21.20232  eV     1   --> A              
     e( 61 - 61) =     21.21498  eV     1   --> A              
     e( 62 - 62) =     21.34600  eV     1   --> A              
     e( 63 - 63) =     22.15135  eV     1   --> A              
     e( 64 - 64) =     22.62206  eV     1   --> A              
     e( 65 - 65) =     22.74438  eV     1   --> A              
     e( 66 - 66) =     22.76413  eV     1   --> A              
     e( 67 - 67) =     23.00540  eV     1   --> A              
     e( 68 - 68) =     23.95687  eV     1   --> A              
     e( 69 - 69) =     24.01690  eV     1   --> A              
     e( 70 - 70) =     24.18291  eV     1   --> A              

 **************************************************************************

 **************************************************************************

                    xk=(   0.19251,   0.11085,   0.00000  )

     Band symmetry, C_1 (1)     point group:

     e(  1 -  1) =     -9.27194  eV     1   --> A              
     e(  2 -  2) =     -9.25151  eV     1   --> A              
     e(  3 -  3) =     -9.18242  eV     1   --> A              
     e(  4 -  4) =     -9.16066  eV     1   --> A              
     e(  5 -  5) =     -1.65916  eV     1   --> A              
     e(  6 -  6) =     -1.57279  eV     1   --> A              
     e(  7 -  7) =      0.21274  eV     1   --> A              
     e(  8 -  8) =      0.46766  eV     1   --> A              
     e(  9 -  9) =      1.91479  eV     1   --> A              
     e( 10 - 10) =      1.97146  eV     1   --> A              
     e( 11 - 11) =      1.99831  eV     1   --> A              
     e( 12 - 12) =      2.03549  eV     1   --> A              
     e( 13 - 13) =      3.17317  eV     1   --> A              
     e( 14 - 14) =      3.35717  eV     1   --> A              
     e( 15 - 15) =      3.35916  eV     1   --> A              
     e( 16 - 16) =      3.41440  eV     1   --> A              
     e( 17 - 17) =      3.42302  eV     1   --> A              
     e( 18 - 18) =      3.50332  eV     1   --> A              
     e( 19 - 19) =      8.30190  eV     1   --> A              
     e( 20 - 20) =      8.91078  eV     1   --> A              
     e( 21 - 21) =      9.48346  eV     1   --> A              
     e( 22 - 22) =      9.60830  eV     1   --> A              
     e( 23 - 23) =     10.39634  eV     1   --> A              
     e( 24 - 24) =     10.85584  eV     1   --> A              
     e( 25 - 25) =     11.07685  eV     1   --> A              
     e( 26 - 26) =     11.09317  eV     1   --> A              
     e( 27 - 27) =     11.37669  eV     1   --> A              
     e( 28 - 28) =     11.70189  eV     1   --> A              
     e( 29 - 29) =     11.71972  eV     1   --> A              
     e( 30 - 30) =     12.00042  eV     1   --> A              
     e( 31 - 31) =     12.02638  eV     1   --> A              
     e( 32 - 32) =     12.26545  eV     1   --> A              
     e( 33 - 33) =     12.54850  eV     1   --> A              
     e( 34 - 34) =     12.55979  eV     1   --> A              
     e( 35 - 35) =     13.02735  eV     1   --> A              
     e( 36 - 36) =     14.04792  eV     1   --> A              
     e( 37 - 37) =     14.13637  eV     1   --> A              
     e( 38 - 38) =     14.35491  eV     1   --> A              
     e( 39 - 39) =     14.39738  eV     1   --> A              
     e( 40 - 40) =     14.84577  eV     1   --> A              
     e( 41 - 41) =     15.07299  eV     1   --> A              
     e( 42 - 42) =     15.17481  eV     1   --> A              
     e( 43 - 43) =     15.36202  eV     1   --> A              
     e( 44 - 44) =     15.93925  eV     1   --> A              
     e( 45 - 45) =     16.60302  eV     1   --> A              
     e( 46 - 46) =     16.62267  eV     1   --> A              
     e( 47 - 47) =     17.04668  eV     1   --> A              
     e( 48 - 48) =     18.33437  eV     1   --> A              
     e( 49 - 49) =     18.59895  eV     1   --> A              
     e( 50 - 50) =     19.33024  eV     1   --> A              
     e( 51 - 51) =     19.42299  eV     1   --> A              
     e( 52 - 52) =     19.74691  eV     1   --> A              
     e( 53 - 53) =     19.80158  eV     1   --> A              
     e( 54 - 54) =     20.05031  eV     1   --> A              
     e( 55 - 55) =     20.45813  eV     1   --> A              
     e( 56 - 56) =     20.56672  eV     1   --> A              
     e( 57 - 57) =     20.69440  eV     1   --> A              
     e( 58 - 58) =     20.72761  eV     1   --> A              
     e( 59 - 59) =     20.89200  eV     1   --> A              
     e( 60 - 60) =     21.51860  eV     1   --> A              
     e( 61 - 61) =     21.57831  eV     1   --> A              
     e( 62 - 62) =     21.77633  eV     1   --> A              
     e( 63 - 63) =     22.32173  eV     1   --> A              
     e( 64 - 64) =     22.37855  eV     1   --> A              
     e( 65 - 65) =     22.78883  eV     1   --> A              
     e( 66 - 66) =     23.24088  eV     1   --> A              
     e( 67 - 67) =     23.45777  eV     1   --> A              
     e( 68 - 68) =     23.99427  eV     1   --> A              
     e( 69 - 69) =     24.13786  eV     1   --> A              
     e( 70 - 70) =     24.31039  eV     1   --> A              

 **************************************************************************

 **************************************************************************

                    xk=(   0.21177,   0.12193,   0.00000  )

     Band symmetry, C_1 (1)     point group:

     e(  1 -  1) =     -9.17757  eV     1   --> A              
     e(  2 -  2) =     -9.15742  eV     1   --> A              
     e(  3 -  3) =     -9.09031  eV     1   --> A              
     e(  4 -  4) =     -9.06889  eV     1   --> A              
     e(  5 -  5) =     -1.55344  eV     1   --> A              
     e(  6 -  6) =     -1.47074  eV     1   --> A              
     e(  7 -  7) =      0.29256  eV     1   --> A              
     e(  8 -  8) =      0.52635  eV     1   --> A              
     e(  9 -  9) =      1.63869  eV     1   --> A              
     e( 10 - 10) =      1.69053  eV     1   --> A              
     e( 11 - 11) =      1.71044  eV     1   --> A              
     e( 12 - 12) =      1.76425  eV     1   --> A              
     e( 13 - 13) =      3.16951  eV     1   --> A              
     e( 14 - 14) =      3.19201  eV     1   --> A              
     e( 15 - 15) =      3.24801  eV     1   --> A              
     e( 16 - 16) =      3.25412  eV     1   --> A              
     e( 17 - 17) =      3.26293  eV     1   --> A              
     e( 18 - 18) =      3.54299  eV     1   --> A              
     e( 19 - 19) =      8.39502  eV     1   --> A              
     e( 20 - 20) =      8.91047  eV     1   --> A              
     e( 21 - 21) =      9.25230  eV     1   --> A              
     e( 22 - 22) =      9.36372  eV     1   --> A              
     e( 23 - 23) =     10.13821  eV     1   --> A              
     e( 24 - 24) =     10.56630  eV     1   --> A              
     e( 25 - 25) =     11.00915  eV     1   --> A              
     e( 26 - 26) =     11.03211  eV     1   --> A              
     e( 27 - 27) =     11.20903  eV     1   --> A              
     e( 28 - 28) =     11.82739  eV     1   --> A              
     e( 29 - 29) =     11.84456  eV     1   --> A              
     e( 30 - 30) =     12.12209  eV     1   --> A              
     e( 31 - 31) =     12.14866  eV     1   --> A              
     e( 32 - 32) =     12.29746  eV     1   --> A              
     e( 33 - 33) =     12.40405  eV     1   --> A              
     e( 34 - 34) =     12.43129  eV     1   --> A              
     e( 35 - 35) =     12.90963  eV     1   --> A              
     e( 36 - 36) =     14.06533  eV     1   --> A              
     e( 37 - 37) =     14.06698  eV     1   --> A              
     e( 38 - 38) =     14.28641  eV     1   --> A              
     e( 39 - 39) =     14.31630  eV     1   --> A              
     e( 40 - 40) =     14.88783  eV     1   --> A              
     e( 41 - 41) =     15.48924  eV     1   --> A              
     e( 42 - 42) =     15.56056  eV     1   --> A              
     e( 43 - 43) =     15.64437  eV     1   --> A              
     e( 44 - 44) =     16.16900  eV     1   --> A              
     e( 45 - 45) =     16.50332  eV     1   --> A              
     e( 46 - 46) =     16.54553  eV     1   --> A              
     e( 47 - 47) =     17.14776  eV     1   --> A              
     e( 48 - 48) =     18.40180  eV     1   --> A              
     e( 49 - 49) =     18.55542  eV     1   --> A              
     e( 50 - 50) =     19.25300  eV     1   --> A              
     e( 51 - 51) =     19.41469  eV     1   --> A              
     e( 52 - 52) =     19.83977  eV     1   --> A              
     e( 53 - 53) =     19.85200  eV     1   --> A              
     e( 54 - 54) =     20.11171  eV     1   --> A              
     e( 55 - 55) =     20.42179  eV     1   --> A              
     e( 56 - 56) =     20.44216  eV     1   --> A              
     e( 57 - 57) =     20.56870  eV     1   --> A              
     e( 58 - 58) =     21.09485  eV     1   --> A              
     e( 59 - 59) =     21.15029  eV     1   --> A              
     e( 60 - 60) =     21.80330  eV     1   --> A              
     e( 61 - 61) =     21.84963  eV     1   --> A              
     e( 62 - 62) =     22.09875  eV     1   --> A              
     e( 63 - 63) =     22.16262  eV     1   --> A              
     e( 64 - 64) =     22.63634  eV     1   --> A              
     e( 65 - 65) =     22.97254  eV     1   --> A              
     e( 66 - 66) =     23.70172  eV     1   --> A              
     e( 67 - 67) =     23.73041  eV     1   --> A              
     e( 68 - 68) =     23.98141  eV     1   --> A              
     e( 69 - 69) =     24.23208  eV     1   --> A              
     e( 70 - 70) =     24.40119  eV     1   --> A              

 **************************************************************************

 **************************************************************************

                    xk=(   0.23102,   0.13302,   0.00000  )

     Band symmetry, C_1 (1)     point group:

     e(  1 -  1) =     -9.07644  eV     1   --> A              
     e(  2 -  2) =     -9.05662  eV     1   --> A              
     e(  3 -  3) =     -8.99167  eV     1   --> A              
     e(  4 -  4) =     -8.97065  eV     1   --> A              
     e(  5 -  5) =     -1.44271  eV     1   --> A              
     e(  6 -  6) =     -1.36488  eV     1   --> A              
     e(  7 -  7) =      0.36668  eV     1   --> A              
     e(  8 -  8) =      0.56520  eV     1   --> A              
     e(  9 -  9) =      1.36942  eV     1   --> A              
     e( 10 - 10) =      1.42096  eV     1   --> A              
     e( 11 - 11) =      1.44111  eV     1   --> A              
     e( 12 - 12) =      1.52484  eV     1   --> A              
     e( 13 - 13) =      2.99940  eV     1   --> A              
     e( 14 - 14) =      3.01116  eV     1   --> A              
     e( 15 - 15) =      3.08052  eV     1   --> A              
     e( 16 - 16) =      3.09018  eV     1   --> A              
     e( 17 - 17) =      3.29700  eV     1   --> A              
     e( 18 - 18) =      3.58449  eV     1   --> A              
     e( 19 - 19) =      8.48620  eV     1   --> A              
     e( 20 - 20) =      8.89913  eV     1   --> A              
     e( 21 - 21) =      9.01666  eV     1   --> A              
     e( 22 - 22) =      9.11673  eV     1   --> A              
     e( 23 - 23) =      9.87211  eV     1   --> A              
     e( 24 - 24) =     10.27730  eV     1   --> A              
     e( 25 - 25) =     10.92838  eV     1   --> A              
     e( 26 - 26) =     10.98155  eV     1   --> A              
     e( 27 - 27) =     11.06947  eV     1   --> A              
     e( 28 - 28) =     11.94897  eV     1   --> A              
     e( 29 - 29) =     11.96998  eV     1   --> A              
     e( 30 - 30) =     12.20317  eV     1   --> A              
     e( 31 - 31) =     12.24540  eV     1   --> A              
     e( 32 - 32) =     12.28312  eV     1   --> A              
     e( 33 - 33) =     12.28520  eV     1   --> A              
     e( 34 - 34) =     12.49275  eV     1   --> A              
     e( 35 - 35) =     12.79313  eV     1   --> A              
     e( 36 - 36) =     13.92571  eV     1   --> A              
     e( 37 - 37) =     13.94604  eV     1   --> A              
     e( 38 - 38) =     14.11277  eV     1   --> A              
     e( 39 - 39) =     14.22387  eV     1   --> A              
     e( 40 - 40) =     15.02454  eV     1   --> A              
     e( 41 - 41) =     15.94647  eV     1   --> A              
     e( 42 - 42) =     16.00183  eV     1   --> A              
     e( 43 - 43) =     16.02368  eV     1   --> A              
     e( 44 - 44) =     16.37963  eV     1   --> A              
     e( 45 - 45) =     16.47683  eV     1   --> A              
     e( 46 - 46) =     16.48916  eV     1   --> A              
     e( 47 - 47) =     17.26435  eV     1   --> A              
     e( 48 - 48) =     18.46911  eV     1   --> A              
     e( 49 - 49) =     18.54114  eV     1   --> A              
     e( 50 - 50) =     19.13201  eV     1   --> A              
     e( 51 - 51) =     19.40613  eV     1   --> A              
     e( 52 - 52) =     19.77818  eV     1   --> A              
     e( 53 - 53) =     19.88071  eV     1   --> A              
     e( 54 - 54) =     20.36885  eV     1   --> A              
     e( 55 - 55) =     20.37511  eV     1   --> A              
     e( 56 - 56) =     20.38229  eV     1   --> A              
     e( 57 - 57) =     20.39796  eV     1   --> A              
     e( 58 - 58) =     21.41686  eV     1   --> A              
     e( 59 - 59) =     21.44893  eV     1   --> A              
     e( 60 - 60) =     21.65950  eV     1   --> A              
     e( 61 - 61) =     22.15902  eV     1   --> A              
     e( 62 - 62) =     22.17841  eV     1   --> A              
     e( 63 - 63) =     22.40164  eV     1   --> A              
     e( 64 - 64) =     22.96350  eV     1   --> A              
     e( 65 - 65) =     23.33191  eV     1   --> A              
     e( 66 - 66) =     23.56610  eV     1   --> A              
     e( 67 - 67) =     24.02274  eV     1   --> A              
     e( 68 - 68) =     24.22046  eV     1   --> A              
     e( 69 - 69) =     24.42541  eV     1   --> A              
     e( 70 - 70) =     24.65416  eV     1   --> A              

 **************************************************************************

 **************************************************************************

                    xk=(   0.25027,   0.14410,   0.00000  )

     Band symmetry, C_1 (1)     point group:

     e(  1 -  1) =     -8.96927  eV     1   --> A              
     e(  2 -  2) =     -8.94984  eV     1   --> A              
     e(  3 -  3) =     -8.88725  eV     1   --> A              
     e(  4 -  4) =     -8.86667  eV     1   --> A              
     e(  5 -  5) =     -1.32991  eV     1   --> A              
     e(  6 -  6) =     -1.25866  eV     1   --> A              
     e(  7 -  7) =      0.41802  eV     1   --> A              
     e(  8 -  8) =      0.55613  eV     1   --> A              
     e(  9 -  9) =      1.11423  eV     1   --> A              
     e( 10 - 10) =      1.16890  eV     1   --> A              
     e( 11 - 11) =      1.20932  eV     1   --> A              
     e( 12 - 12) =      1.34722  eV     1   --> A              
     e( 13 - 13) =      2.80708  eV     1   --> A              
     e( 14 - 14) =      2.81809  eV     1   --> A              
     e( 15 - 15) =      2.89610  eV     1   --> A              
     e( 16 - 16) =      2.90629  eV     1   --> A              
     e( 17 - 17) =      3.35852  eV     1   --> A              
     e( 18 - 18) =      3.62448  eV     1   --> A              
     e( 19 - 19) =      8.57064  eV     1   --> A              
     e( 20 - 20) =      8.77721  eV     1   --> A              
     e( 21 - 21) =      8.86734  eV     1   --> A              
     e( 22 - 22) =      8.87534  eV     1   --> A              
     e( 23 - 23) =      9.60583  eV     1   --> A              
     e( 24 - 24) =      9.99642  eV     1   --> A              
     e( 25 - 25) =     10.80662  eV     1   --> A              
     e( 26 - 26) =     10.94125  eV     1   --> A              
     e( 27 - 27) =     10.99803  eV     1   --> A              
     e( 28 - 28) =     12.00348  eV     1   --> A              
     e( 29 - 29) =     12.05808  eV     1   --> A              
     e( 30 - 30) =     12.18393  eV     1   --> A              
     e( 31 - 31) =     12.23923  eV     1   --> A              
     e( 32 - 32) =     12.35935  eV     1   --> A              
     e( 33 - 33) =     12.43243  eV     1   --> A              
     e( 34 - 34) =     12.59410  eV     1   --> A              
     e( 35 - 35) =     12.70867  eV     1   --> A              
     e( 36 - 36) =     13.72451  eV     1   --> A              
     e( 37 - 37) =     13.79428  eV     1   --> A              
     e( 38 - 38) =     13.91635  eV     1   --> A              
     e( 39 - 39) =     14.10814  eV     1   --> A              
     e( 40 - 40) =     15.16641  eV     1   --> A              
     e( 41 - 41) =     16.14536  eV     1   --> A              
     e( 42 - 42) =     16.27212  eV     1   --> A              
     e( 43 - 43) =     16.42420  eV     1   --> A              
     e( 44 - 44) =     16.54940  eV     1   --> A              
     e( 45 - 45) =     16.57215  eV     1   --> A              
     e( 46 - 46) =     16.88017  eV     1   --> A              
     e( 47 - 47) =     17.39379  eV     1   --> A              
     e( 48 - 48) =     18.54239  eV     1   --> A              
     e( 49 - 49) =     18.55063  eV     1   --> A              
     e( 50 - 50) =     19.00167  eV     1   --> A              
     e( 51 - 51) =     19.39426  eV     1   --> A              
     e( 52 - 52) =     19.71974  eV     1   --> A              
     e( 53 - 53) =     19.91452  eV     1   --> A              
     e( 54 - 54) =     20.19710  eV     1   --> A              
     e( 55 - 55) =     20.35171  eV     1   --> A              
     e( 56 - 56) =     20.35703  eV     1   --> A              
     e( 57 - 57) =     20.65258  eV     1   --> A              
     e( 58 - 58) =     21.43616  eV     1   --> A              
     e( 59 - 59) =     21.68431  eV     1   --> A              
     e( 60 - 60) =     21.73545  eV     1   --> A              
     e( 61 - 61) =     22.27079  eV     1   --> A              
     e( 62 - 62) =     22.48466  eV     1   --> A              
     e( 63 - 63) =     22.49495  eV     1   --> A              
     e( 64 - 64) =     23.31048  eV     1   --> A              
     e( 65 - 65) =     23.43644  eV     1   --> A              
     e( 66 - 66) =     23.80266  eV     1   --> A              
     e( 67 - 67) =     24.12038  eV     1   --> A              
     e( 68 - 68) =     24.32502  eV     1   --> A              
     e( 69 - 69) =     24.88953  eV     1   --> A              
     e( 70 - 70) =     24.94064  eV     1   --> A              

 **************************************************************************

 **************************************************************************

                    xk=(   0.26952,   0.15519,   0.00000  )

     Band symmetry, C_1 (1)     point group:

     e(  1 -  1) =     -8.85693  eV     1   --> A              
     e(  2 -  2) =     -8.83795  eV     1   --> A              
     e(  3 -  3) =     -8.77788  eV     1   --> A              
     e(  4 -  4) =     -8.75782  eV     1   --> A              
     e(  5 -  5) =     -1.21962  eV     1   --> A              
     e(  6 -  6) =     -1.15731  eV     1   --> A              
     e(  7 -  7) =      0.40736  eV     1   --> A              
     e(  8 -  8) =      0.46653  eV     1   --> A              
     e(  9 -  9) =      0.88058  eV     1   --> A              
     e( 10 - 10) =      0.94177  eV     1   --> A              
     e( 11 - 11) =      1.05580  eV     1   --> A              
     e( 12 - 12) =      1.26543  eV     1   --> A              
     e( 13 - 13) =      2.60377  eV     1   --> A              
     e( 14 - 14) =      2.61486  eV     1   --> A              
     e( 15 - 15) =      2.70218  eV     1   --> A              
     e( 16 - 16) =      2.71290  eV     1   --> A              
     e( 17 - 17) =      3.42078  eV     1   --> A              
     e( 18 - 18) =      3.66079  eV     1   --> A              
     e( 19 - 19) =      8.53491  eV     1   --> A              
     e( 20 - 20) =      8.61603  eV     1   --> A              
     e( 21 - 21) =      8.64175  eV     1   --> A              
     e( 22 - 22) =      8.83841  eV     1   --> A              
     e( 23 - 23) =      9.34548  eV     1   --> A              
     e( 24 - 24) =      9.72836  eV     1   --> A              
     e( 25 - 25) =     10.67988  eV     1   --> A              
     e( 26 - 26) =     10.90957  eV     1   --> A              
     e( 27 - 27) =     10.96775  eV     1   --> A              
     e( 28 - 28) =     11.95842  eV     1   --> A              
     e( 29 - 29) =     12.04793  eV     1   --> A              
     e( 30 - 30) =     12.30164  eV     1   --> A              
     e( 31 - 31) =     12.33583  eV     1   --> A              
     e( 32 - 32) =     12.43000  eV     1   --> A              
     e( 33 - 33) =     12.58904  eV     1   --> A              
     e( 34 - 34) =     12.69774  eV     1   --> A              
     e( 35 - 35) =     12.69918  eV     1   --> A              
     e( 36 - 36) =     13.50799  eV     1   --> A              
     e( 37 - 37) =     13.62047  eV     1   --> A              
     e( 38 - 38) =     13.71898  eV     1   --> A              
     e( 39 - 39) =     13.98812  eV     1   --> A              
     e( 40 - 40) =     15.29086  eV     1   --> A              
     e( 41 - 41) =     15.98458  eV     1   --> A              
     e( 42 - 42) =     16.21225  eV     1   --> A              
     e( 43 - 43) =     16.78075  eV     1   --> A              
     e( 44 - 44) =     16.99844  eV     1   --> A              
     e( 45 - 45) =     17.07093  eV     1   --> A              
     e( 46 - 46) =     17.30566  eV     1   --> A              
     e( 47 - 47) =     17.53675  eV     1   --> A              
     e( 48 - 48) =     18.58032  eV     1   --> A              
     e( 49 - 49) =     18.62487  eV     1   --> A              
     e( 50 - 50) =     18.91897  eV     1   --> A              
     e( 51 - 51) =     19.37790  eV     1   --> A              
     e( 52 - 52) =     19.69601  eV     1   --> A              
     e( 53 - 53) =     19.93490  eV     1   --> A              
     e( 54 - 54) =     19.98974  eV     1   --> A              
     e( 55 - 55) =     20.36729  eV     1   --> A              
     e( 56 - 56) =     20.37620  eV     1   --> A              
     e( 57 - 57) =     20.91557  eV     1   --> A              
     e( 58 - 58) =     21.24950  eV     1   --> A              
     e( 59 - 59) =     21.90379  eV     1   --> A              
     e( 60 - 60) =     21.93694  eV     1   --> A              
     e( 61 - 61) =     22.36912  eV     1   --> A              
     e( 62 - 62) =     22.47085  eV     1   --> A              
     e( 63 - 63) =     22.79537  eV     1   --> A              
     e( 64 - 64) =     23.41395  eV     1   --> A              
     e( 65 - 65) =     23.59003  eV     1   --> A              
     e( 66 - 66) =     24.07827  eV     1   --> A              
     e( 67 - 67) =     24.32138  eV     1   --> A              
     e( 68 - 68) =     24.54358  eV     1   --> A              
     e( 69 - 69) =     25.23331  eV     1   --> A              
     e( 70 - 70) =     25.34725  eV     1   --> A              

 **************************************************************************

 **************************************************************************

                    xk=(   0.28877,   0.16627,   0.00000  )

     Band symmetry, C_1 (1)     point group:

     e(  1 -  1) =     -8.74040  eV     1   --> A              
     e(  2 -  2) =     -8.72193  eV     1   --> A              
     e(  3 -  3) =     -8.66455  eV     1   --> A              
     e(  4 -  4) =     -8.64509  eV     1   --> A              
     e(  5 -  5) =     -1.11902  eV     1   --> A              
     e(  6 -  6) =     -1.06877  eV     1   --> A              
     e(  7 -  7) =      0.29687  eV     1   --> A              
     e(  8 -  8) =      0.30398  eV     1   --> A              
     e(  9 -  9) =      0.67778  eV     1   --> A              
     e( 10 - 10) =      0.74925  eV     1   --> A              
     e( 11 - 11) =      1.01952  eV     1   --> A              
     e( 12 - 12) =      1.27299  eV     1   --> A              
     e( 13 - 13) =      2.39206  eV     1   --> A              
     e( 14 - 14) =      2.40343  eV     1   --> A              
     e( 15 - 15) =      2.50053  eV     1   --> A              
     e( 16 - 16) =      2.51181  eV     1   --> A              
     e( 17 - 17) =      3.48058  eV     1   --> A              
     e( 18 - 18) =      3.69144  eV     1   --> A              
     e( 19 - 19) =      8.29095  eV     1   --> A              
     e( 20 - 20) =      8.36378  eV     1   --> A              
     e( 21 - 21) =      8.69157  eV     1   --> A              
     e( 22 - 22) =      8.78879  eV     1   --> A              
     e( 23 - 23) =      9.09617  eV     1   --> A              
     e( 24 - 24) =      9.47651  eV     1   --> A              
     e( 25 - 25) =     10.58166  eV     1   --> A              
     e( 26 - 26) =     10.88357  eV     1   --> A              
     e( 27 - 27) =     10.95247  eV     1   --> A              
     e( 28 - 28) =     11.91912  eV     1   --> A              
     e( 29 - 29) =     12.02478  eV     1   --> A              
     e( 30 - 30) =     12.43640  eV     1   --> A              
     e( 31 - 31) =     12.45001  eV     1   --> A              
     e( 32 - 32) =     12.48739  eV     1   --> A              
     e( 33 - 33) =     12.75394  eV     1   --> A              
     e( 34 - 34) =     12.78026  eV     1   --> A              
     e( 35 - 35) =     12.79538  eV     1   --> A              
     e( 36 - 36) =     13.29565  eV     1   --> A              
     e( 37 - 37) =     13.43365  eV     1   --> A              
     e( 38 - 38) =     13.53757  eV     1   --> A              
     e( 39 - 39) =     13.88388  eV     1   --> A              
     e( 40 - 40) =     15.39857  eV     1   --> A              
     e( 41 - 41) =     15.79569  eV     1   --> A              
     e( 42 - 42) =     16.09226  eV     1   --> A              
     e( 43 - 43) =     17.01618  eV     1   --> A              
     e( 44 - 44) =     17.46228  eV     1   --> A              
     e( 45 - 45) =     17.58592  eV     1   --> A              
     e( 46 - 46) =     17.70965  eV     1   --> A              
     e( 47 - 47) =     17.71793  eV     1   --> A              
     e( 48 - 48) =     18.63039  eV     1   --> A              
     e( 49 - 49) =     18.72085  eV     1   --> A              
     e( 50 - 50) =     18.95740  eV     1   --> A              
     e( 51 - 51) =     19.35077  eV     1   --> A              
     e( 52 - 52) =     19.70832  eV     1   --> A              
     e( 53 - 53) =     19.81394  eV     1   --> A              
     e( 54 - 54) =     19.94301  eV     1   --> A              
     e( 55 - 55) =     20.41716  eV     1   --> A              
     e( 56 - 56) =     20.42979  eV     1   --> A              
     e( 57 - 57) =     21.11630  eV     1   --> A              
     e( 58 - 58) =     21.16807  eV     1   --> A              
     e( 59 - 59) =     21.93290  eV     1   --> A              
     e( 60 - 60) =     22.15975  eV     1   --> A              
     e( 61 - 61) =     22.40538  eV     1   --> A              
     e( 62 - 62) =     22.45654  eV     1   --> A              
     e( 63 - 63) =     23.07767  eV     1   --> A              
     e( 64 - 64) =     23.52166  eV     1   --> A              
     e( 65 - 65) =     23.79533  eV     1   --> A              
     e( 66 - 66) =     23.97580  eV     1   --> A              
     e( 67 - 67) =     24.71388  eV     1   --> A              
     e( 68 - 68) =     24.84486  eV     1   --> A              
     e( 69 - 69) =     25.46593  eV     1   --> A              
     e( 70 - 70) =     25.63975  eV     1   --> A              

 **************************************************************************

 **************************************************************************

                    xk=(   0.30802,   0.17736,   0.00000  )

     Band symmetry, C_1 (1)     point group:

     e(  1 -  1) =     -8.62081  eV     1   --> A              
     e(  2 -  2) =     -8.60293  eV     1   --> A              
     e(  3 -  3) =     -8.54839  eV     1   --> A              
     e(  4 -  4) =     -8.52960  eV     1   --> A              
     e(  5 -  5) =     -1.03887  eV     1   --> A              
     e(  6 -  6) =     -1.00401  eV     1   --> A              
     e(  7 -  7) =      0.10724  eV     1   --> A              
     e(  8 -  8) =      0.11799  eV     1   --> A              
     e(  9 -  9) =      0.51829  eV     1   --> A              
     e( 10 - 10) =      0.60382  eV     1   --> A              
     e( 11 - 11) =      1.07001  eV     1   --> A              
     e( 12 - 12) =      1.33169  eV     1   --> A              
     e( 13 - 13) =      2.17406  eV     1   --> A              
     e( 14 - 14) =      2.18580  eV     1   --> A              
     e( 15 - 15) =      2.29305  eV     1   --> A              
     e( 16 - 16) =      2.30495  eV     1   --> A              
     e( 17 - 17) =      3.53532  eV     1   --> A              
[...]
     e( 61 - 61) =     20.75305  eV     1   --> A'             
     e( 62 - 62) =     20.94809  eV     1   --> A'             
     e( 63 - 63) =     21.00888  eV     1   --> A''            
     e( 64 - 64) =     21.44576  eV     1   --> A''            
     e( 65 - 65) =     22.04190  eV     1   --> A'             
     e( 66 - 66) =     22.11217  eV     1   --> A'             
     e( 67 - 67) =     22.73278  eV     1   --> A'             
     e( 68 - 68) =     23.67552  eV     1   --> A'             
     e( 69 - 69) =     23.96389  eV     1   --> A'             
     e( 70 - 70) =     24.21929  eV     1   --> A''            

 **************************************************************************

 **************************************************************************

                    xk=(   0.05775,   0.00000,   0.00000  )

     Band symmetry, C_s (m)     point group:

     e(  1 -  1) =     -9.71230  eV     1   --> A'             
     e(  2 -  2) =     -9.69080  eV     1   --> A'             
     e(  3 -  3) =     -9.61302  eV     1   --> A'             
     e(  4 -  4) =     -9.58995  eV     1   --> A'             
     e(  5 -  5) =     -2.16469  eV     1   --> A'             
     e(  6 -  6) =     -2.06780  eV     1   --> A'             
     e(  7 -  7) =     -0.20559  eV     1   --> A'             
     e(  8 -  8) =      0.09620  eV     1   --> A'             
     e(  9 -  9) =      2.73091  eV     1   --> A'             
     e( 10 - 10) =      3.19165  eV     1   --> A'             
     e( 11 - 11) =      3.95203  eV     1   --> A'             
     e( 12 - 12) =      3.95834  eV     1   --> A'             
     e( 13 - 13) =      3.96802  eV     1   --> A'             
     e( 14 - 14) =      3.97161  eV     1   --> A'             
     e( 15 - 15) =      4.10008  eV     1   --> A''            
     e( 16 - 16) =      4.10690  eV     1   --> A''            
     e( 17 - 17) =      4.13020  eV     1   --> A''            
     e( 18 - 18) =      4.13710  eV     1   --> A''            
     e( 19 - 19) =      7.75981  eV     1   --> A'             
     e( 20 - 20) =      8.73863  eV     1   --> A'             
     e( 21 - 21) =     10.69045  eV     1   --> A'             
     e( 22 - 22) =     10.71989  eV     1   --> A'             
     e( 23 - 23) =     10.84086  eV     1   --> A'             
     e( 24 - 24) =     10.86571  eV     1   --> A'             
     e( 25 - 25) =     10.90696  eV     1   --> A'             
     e( 26 - 26) =     11.30230  eV     1   --> A'             
     e( 27 - 27) =     11.41208  eV     1   --> A'             
     e( 28 - 28) =     11.54392  eV     1   --> A''            
     e( 29 - 29) =     11.55509  eV     1   --> A''            
     e( 30 - 30) =     11.91950  eV     1   --> A'             
     e( 31 - 31) =     11.93722  eV     1   --> A'             
     e( 32 - 32) =     12.10504  eV     1   --> A''            
     e( 33 - 33) =     12.12136  eV     1   --> A''            
     e( 34 - 34) =     12.55699  eV     1   --> A'             
     e( 35 - 35) =     14.06812  eV     1   --> A'             
     e( 36 - 36) =     14.14962  eV     1   --> A'             
     e( 37 - 37) =     14.27279  eV     1   --> A'             
     e( 38 - 38) =     14.33781  eV     1   --> A''            
     e( 39 - 39) =     14.39600  eV     1   --> A''            
     e( 40 - 40) =     14.99538  eV     1   --> A'             
     e( 41 - 41) =     15.54353  eV     1   --> A'             
     e( 42 - 42) =     15.80097  eV     1   --> A''            
     e( 43 - 43) =     15.90478  eV     1   --> A'             
     e( 44 - 44) =     15.91908  eV     1   --> A''            
     e( 45 - 45) =     16.37792  eV     1   --> A'             
     e( 46 - 46) =     16.55509  eV     1   --> A''            
     e( 47 - 47) =     16.59593  eV     1   --> A''            
     e( 48 - 48) =     16.64232  eV     1   --> A'             
     e( 49 - 49) =     17.97473  eV     1   --> A'             
     e( 50 - 50) =     18.52160  eV     1   --> A'             
     e( 51 - 51) =     18.74109  eV     1   --> A'             
     e( 52 - 52) =     18.92255  eV     1   --> A'             
     e( 53 - 53) =     18.95930  eV     1   --> A'             
     e( 54 - 54) =     18.98118  eV     1   --> A'             
     e( 55 - 55) =     19.42170  eV     1   --> A'             
     e( 56 - 56) =     19.99816  eV     1   --> A'             
     e( 57 - 57) =     20.02770  eV     1   --> A'             
     e( 58 - 58) =     20.17922  eV     1   --> A'             
     e( 59 - 59) =     20.20794  eV     1   --> A''            
     e( 60 - 60) =     20.34975  eV     1   --> A''            
     e( 61 - 61) =     20.78654  eV     1   --> A'             
     e( 62 - 62) =     21.04031  eV     1   --> A''            
     e( 63 - 63) =     21.04658  eV     1   --> A'             
     e( 64 - 64) =     21.45722  eV     1   --> A''            
     e( 65 - 65) =     21.89598  eV     1   --> A'             
     e( 66 - 66) =     22.13611  eV     1   --> A'             
     e( 67 - 67) =     22.47157  eV     1   --> A'             
     e( 68 - 68) =     23.44412  eV     1   --> A'             
     e( 69 - 69) =     24.16649  eV     1   --> A'             
     e( 70 - 70) =     24.33319  eV     1   --> A''            

 **************************************************************************

 **************************************************************************

                    xk=(   0.03850,   0.00000,   0.00000  )

     Band symmetry, C_s (m)     point group:

     e(  1 -  1) =     -9.73071  eV     1   --> A'             
     e(  2 -  2) =     -9.70917  eV     1   --> A'             
     e(  3 -  3) =     -9.63105  eV     1   --> A'             
     e(  4 -  4) =     -9.60793  eV     1   --> A'             
     e(  5 -  5) =     -2.18596  eV     1   --> A'             
     e(  6 -  6) =     -2.08878  eV     1   --> A'             
     e(  7 -  7) =     -0.22376  eV     1   --> A'             
     e(  8 -  8) =      0.07922  eV     1   --> A'             
     e(  9 -  9) =      2.72127  eV     1   --> A'             
     e( 10 - 10) =      3.18538  eV     1   --> A'             
     e( 11 - 11) =      4.06585  eV     1   --> A'             
     e( 12 - 12) =      4.07236  eV     1   --> A'             
     e( 13 - 13) =      4.08919  eV     1   --> A'             
     e( 14 - 14) =      4.09387  eV     1   --> A'             
     e( 15 - 15) =      4.12829  eV     1   --> A''            
     e( 16 - 16) =      4.13482  eV     1   --> A''            
     e( 17 - 17) =      4.15765  eV     1   --> A''            
     e( 18 - 18) =      4.16424  eV     1   --> A''            
     e( 19 - 19) =      7.72881  eV     1   --> A'             
     e( 20 - 20) =      8.71931  eV     1   --> A'             
     e( 21 - 21) =     10.60999  eV     1   --> A'             
     e( 22 - 22) =     10.63577  eV     1   --> A'             
     e( 23 - 23) =     10.77997  eV     1   --> A'             
     e( 24 - 24) =     10.82300  eV     1   --> A'             
     e( 25 - 25) =     10.87174  eV     1   --> A'             
     e( 26 - 26) =     11.40767  eV     1   --> A'             
     e( 27 - 27) =     11.45069  eV     1   --> A'             
     e( 28 - 28) =     11.50512  eV     1   --> A''            
     e( 29 - 29) =     11.51649  eV     1   --> A''            
     e( 30 - 30) =     11.96893  eV     1   --> A'             
     e( 31 - 31) =     11.98675  eV     1   --> A'             
     e( 32 - 32) =     12.04333  eV     1   --> A''            
     e( 33 - 33) =     12.05957  eV     1   --> A''            
     e( 34 - 34) =     12.58795  eV     1   --> A'             
     e( 35 - 35) =     14.21743  eV     1   --> A'             
     e( 36 - 36) =     14.28554  eV     1   --> A'             
     e( 37 - 37) =     14.35450  eV     1   --> A'             
     e( 38 - 38) =     14.40252  eV     1   --> A''            
     e( 39 - 39) =     14.45869  eV     1   --> A''            
     e( 40 - 40) =     15.04266  eV     1   --> A'             
     e( 41 - 41) =     15.72871  eV     1   --> A'             
     e( 42 - 42) =     15.84586  eV     1   --> A''            
     e( 43 - 43) =     15.95521  eV     1   --> A''            
     e( 44 - 44) =     15.95761  eV     1   --> A'             
     e( 45 - 45) =     16.40379  eV     1   --> A'             
     e( 46 - 46) =     16.44791  eV     1   --> A''            
     e( 47 - 47) =     16.49424  eV     1   --> A''            
     e( 48 - 48) =     16.50041  eV     1   --> A'             
     e( 49 - 49) =     17.78592  eV     1   --> A'             
     e( 50 - 50) =     18.35706  eV     1   --> A'             
     e( 51 - 51) =     18.59887  eV     1   --> A'             
     e( 52 - 52) =     18.85489  eV     1   --> A'             
     e( 53 - 53) =     18.86795  eV     1   --> A'             
     e( 54 - 54) =     18.89924  eV     1   --> A'             
     e( 55 - 55) =     19.27158  eV     1   --> A'             
     e( 56 - 56) =     19.94733  eV     1   --> A'             
     e( 57 - 57) =     20.04587  eV     1   --> A'             
     e( 58 - 58) =     20.13499  eV     1   --> A''            
     e( 59 - 59) =     20.20657  eV     1   --> A'             
     e( 60 - 60) =     20.27606  eV     1   --> A''            
     e( 61 - 61) =     20.92154  eV     1   --> A'             
     e( 62 - 62) =     21.06839  eV     1   --> A''            
     e( 63 - 63) =     21.20975  eV     1   --> A'             
     e( 64 - 64) =     21.46786  eV     1   --> A''            
     e( 65 - 65) =     21.78054  eV     1   --> A'             
     e( 66 - 66) =     22.14351  eV     1   --> A'             
     e( 67 - 67) =     22.22312  eV     1   --> A'             
     e( 68 - 68) =     23.20965  eV     1   --> A'             
     e( 69 - 69) =     24.35163  eV     1   --> A'             
     e( 70 - 70) =     24.42679  eV     1   --> A''            

 **************************************************************************

 **************************************************************************

                    xk=(   0.01925,   0.00000,   0.00000  )

     Band symmetry, C_s (m)     point group:

     e(  1 -  1) =     -9.74178  eV     1   --> A'             
     e(  2 -  2) =     -9.72022  eV     1   --> A'             
     e(  3 -  3) =     -9.64189  eV     1   --> A'             
     e(  4 -  4) =     -9.61874  eV     1   --> A'             
     e(  5 -  5) =     -2.19874  eV     1   --> A'             
     e(  6 -  6) =     -2.10140  eV     1   --> A'             
     e(  7 -  7) =     -0.23470  eV     1   --> A'             
     e(  8 -  8) =      0.06899  eV     1   --> A'             
     e(  9 -  9) =      2.71507  eV     1   --> A'             
     e( 10 - 10) =      3.18096  eV     1   --> A'             
     e( 11 - 11) =      4.13719  eV     1   --> A'             
     e( 12 - 12) =      4.14354  eV     1   --> A'             
     e( 13 - 13) =      4.14553  eV     1   --> A''            
     e( 14 - 14) =      4.15187  eV     1   --> A''            
     e( 15 - 15) =      4.16451  eV     1   --> A'             
     e( 16 - 16) =      4.17036  eV     1   --> A'             
     e( 17 - 17) =      4.17441  eV     1   --> A''            
     e( 18 - 18) =      4.18080  eV     1   --> A''            
     e( 19 - 19) =      7.70923  eV     1   --> A'             
     e( 20 - 20) =      8.70644  eV     1   --> A'             
     e( 21 - 21) =     10.54900  eV     1   --> A'             
     e( 22 - 22) =     10.57405  eV     1   --> A'             
     e( 23 - 23) =     10.72287  eV     1   --> A'             
     e( 24 - 24) =     10.76709  eV     1   --> A'             
     e( 25 - 25) =     10.89543  eV     1   --> A'             
     e( 26 - 26) =     11.48048  eV     1   --> A'             
     e( 27 - 27) =     11.48065  eV     1   --> A''            
     e( 28 - 28) =     11.48281  eV     1   --> A'             
     e( 29 - 29) =     11.49210  eV     1   --> A''            
     e( 30 - 30) =     12.00393  eV     1   --> A'             
     e( 31 - 31) =     12.00581  eV     1   --> A''            
     e( 32 - 32) =     12.02074  eV     1   --> A'             
     e( 33 - 33) =     12.02201  eV     1   --> A''            
     e( 34 - 34) =     12.60796  eV     1   --> A'             
     e( 35 - 35) =     14.19673  eV     1   --> A'             
     e( 36 - 36) =     14.43202  eV     1   --> A'             
     e( 37 - 37) =     14.44774  eV     1   --> A''            
     e( 38 - 38) =     14.48634  eV     1   --> A'             
     e( 39 - 39) =     14.50234  eV     1   --> A''            
     e( 40 - 40) =     15.06048  eV     1   --> A'             
     e( 41 - 41) =     15.85537  eV     1   --> A'             
     e( 42 - 42) =     15.87439  eV     1   --> A''            
     e( 43 - 43) =     15.97768  eV     1   --> A''            
     e( 44 - 44) =     15.99120  eV     1   --> A'             
     e( 45 - 45) =     16.37770  eV     1   --> A''            
     e( 46 - 46) =     16.40348  eV     1   --> A'             
     e( 47 - 47) =     16.41964  eV     1   --> A'             
     e( 48 - 48) =     16.42730  eV     1   --> A''            
     e( 49 - 49) =     17.66251  eV     1   --> A'             
     e( 50 - 50) =     18.23777  eV     1   --> A'             
     e( 51 - 51) =     18.51141  eV     1   --> A'             
     e( 52 - 52) =     18.78966  eV     1   --> A'             
     e( 53 - 53) =     18.82917  eV     1   --> A'             
     e( 54 - 54) =     18.84964  eV     1   --> A'             
     e( 55 - 55) =     19.17144  eV     1   --> A'             
     e( 56 - 56) =     19.87349  eV     1   --> A'             
     e( 57 - 57) =     20.08140  eV     1   --> A'             
     e( 58 - 58) =     20.09004  eV     1   --> A''            
     e( 59 - 59) =     20.22694  eV     1   --> A'             
     e( 60 - 60) =     20.23038  eV     1   --> A''            
     e( 61 - 61) =     21.05774  eV     1   --> A'             
     e( 62 - 62) =     21.08773  eV     1   --> A''            
     e( 63 - 63) =     21.38985  eV     1   --> A'             
     e( 64 - 64) =     21.47518  eV     1   --> A''            
     e( 65 - 65) =     21.70666  eV     1   --> A'             
     e( 66 - 66) =     22.00020  eV     1   --> A'             
     e( 67 - 67) =     22.14372  eV     1   --> A'             
     e( 68 - 68) =     23.03047  eV     1   --> A'             
     e( 69 - 69) =     24.48308  eV     1   --> A'             
     e( 70 - 70) =     24.48921  eV     1   --> A''            

 **************************************************************************

 **************************************************************************

                    xk=(   0.00000,   0.00000,   0.00000  )

     Band symmetry, C_s (m)     point group:

     e(  1 -  1) =     -9.74548  eV     1   --> A'             
     e(  2 -  2) =     -9.72391  eV     1   --> A'             
     e(  3 -  3) =     -9.64551  eV     1   --> A'             
     e(  4 -  4) =     -9.62235  eV     1   --> A'             
     e(  5 -  5) =     -2.20301  eV     1   --> A'             
     e(  6 -  6) =     -2.10561  eV     1   --> A'             
     e(  7 -  7) =     -0.23836  eV     1   --> A'             
     e(  8 -  8) =      0.06557  eV     1   --> A'             
     e(  9 -  9) =      2.71294  eV     1   --> A'             
     e( 10 - 10) =      3.17939  eV     1   --> A'             
     e( 11 - 11) =      4.15133  eV     1   --> A''            
     e( 12 - 12) =      4.15760  eV     1   --> A''            
     e( 13 - 13) =      4.16150  eV     1   --> A'             
     e( 14 - 14) =      4.16776  eV     1   --> A'             
     e( 15 - 15) =      4.18005  eV     1   --> A''            
     e( 16 - 16) =      4.18637  eV     1   --> A''            
     e( 17 - 17) =      4.19009  eV     1   --> A'             
     e( 18 - 18) =      4.19640  eV     1   --> A'             
     e( 19 - 19) =      7.70253  eV     1   --> A'             
     e( 20 - 20) =      8.70191  eV     1   --> A'             
     e( 21 - 21) =     10.52741  eV     1   --> A'             
     e( 22 - 22) =     10.55215  eV     1   --> A'             
     e( 23 - 23) =     10.70296  eV     1   --> A'             
     e( 24 - 24) =     10.74763  eV     1   --> A'             
     e( 25 - 25) =     10.90305  eV     1   --> A'             
     e( 26 - 26) =     11.47229  eV     1   --> A''            
     e( 27 - 27) =     11.48376  eV     1   --> A''            
     e( 28 - 28) =     11.49487  eV     1   --> A'             
     e( 29 - 29) =     11.50636  eV     1   --> A'             
     e( 30 - 30) =     11.99323  eV     1   --> A''            
     e( 31 - 31) =     12.00941  eV     1   --> A''            
     e( 32 - 32) =     12.01646  eV     1   --> A'             
     e( 33 - 33) =     12.03268  eV     1   --> A'             
     e( 34 - 34) =     12.61484  eV     1   --> A'             
     e( 35 - 35) =     14.18723  eV     1   --> A'             
     e( 36 - 36) =     14.46407  eV     1   --> A''            
     e( 37 - 37) =     14.48457  eV     1   --> A'             
     e( 38 - 38) =     14.51806  eV     1   --> A''            
     e( 39 - 39) =     14.53865  eV     1   --> A'             
     e( 40 - 40) =     15.06257  eV     1   --> A'             
     e( 41 - 41) =     15.88420  eV     1   --> A''            
     e( 42 - 42) =     15.90124  eV     1   --> A'             
     e( 43 - 43) =     15.98529  eV     1   --> A''            
     e( 44 - 44) =     16.00243  eV     1   --> A'             
     e( 45 - 45) =     16.35315  eV     1   --> A''            
     e( 46 - 46) =     16.37131  eV     1   --> A'             
     e( 47 - 47) =     16.40383  eV     1   --> A''            
     e( 48 - 48) =     16.42180  eV     1   --> A'             
     e( 49 - 49) =     17.61966  eV     1   --> A'             
     e( 50 - 50) =     18.19423  eV     1   --> A'             
     e( 51 - 51) =     18.48171  eV     1   --> A'             
     e( 52 - 52) =     18.76729  eV     1   --> A'             
     e( 53 - 53) =     18.81515  eV     1   --> A'             
     e( 54 - 54) =     18.83324  eV     1   --> A'             
     e( 55 - 55) =     19.13643  eV     1   --> A'             
     e( 56 - 56) =     19.84536  eV     1   --> A'             
     e( 57 - 57) =     20.07486  eV     1   --> A''            
     e( 58 - 58) =     20.09456  eV     1   --> A'             
     e( 59 - 59) =     20.21490  eV     1   --> A''            
     e( 60 - 60) =     20.23426  eV     1   --> A'             
     e( 61 - 61) =     21.09463  eV     1   --> A''            
     e( 62 - 62) =     21.11444  eV     1   --> A'             
     e( 63 - 63) =     21.47776  eV     1   --> A''            
     e( 64 - 64) =     21.49681  eV     1   --> A'             
     e( 65 - 65) =     21.68117  eV     1   --> A'             
     e( 66 - 66) =     21.88000  eV     1   --> A'             
     e( 67 - 67) =     22.14309  eV     1   --> A'             
     e( 68 - 68) =     22.96162  eV     1   --> A'             
     e( 69 - 69) =     24.51126  eV     1   --> A''            
     e( 70 - 70) =     24.53090  eV     1   --> A'             

 **************************************************************************
 
     BANDS        :      8.08s CPU     13.17s WALL

 
   This run was terminated on:  15:19: 1  18Jun2023            

=------------------------------------------------------------------------------=
   JOB DONE.
=------------------------------------------------------------------------------=
