
     Program PWSCF v.7.0 starts on 18Jun2023 at 15: 7:33 

     This program is part of the open-source Quantum ESPRESSO suite
     for quantum simulation of materials; please cite
         "P. Giannozzi et al., J. Phys.:Condens. Matter 21 395502 (2009);
         "P. Giannozzi et al., J. Phys.:Condens. Matter 29 465901 (2017);
         "P. Giannozzi et al., J. Chem. Phys. 152 154105 (2020);
          URL http://www.quantum-espresso.org", 
     in publications or presentations arising from this work. More details at
     http://www.quantum-espresso.org/quote

     Parallel version (MPI), running on    16 processors

     MPI processes distributed on     1 nodes
     R & G space division:  proc/nbgrp/npool/nimage =      16
     3622 MiB available memory on the printing compute node when the environment starts
 
     Waiting for input...
     Reading input from standard input

     Current dimensions of program PWSCF are:
     Max number of different atomic species (ntypx) = 10
     Max number of k-points (npk) =  40000
     Max angular momentum in pseudopotentials (lmaxx) =  4
     Message from routine volume:
     axis vectors are left-handed
     file Al.pbe-n-kjpaw_psl.1.0.0.UPF: wavefunction(s)  3S 3P renormalized
     file S.pbe-n-kjpaw_psl.1.0.0.UPF: wavefunction(s)  3S 3P renormalized
     Message from routine setup:
     using ibrav=0 with symmetry is DISCOURAGED, use correct ibrav instead

     Subspace diagonalization in iterative solution of the eigenvalue problem:
     a serial algorithm will be used

 
     Parallelization info
     --------------------
     sticks:   dense  smooth     PW     G-vecs:    dense   smooth      PW
     Min          39      39     12                 4469     4469     788
     Max          40      40     13                 4473     4473     807
     Sum         625     625    199                71529    71529   12743
 
     Using Slab Decomposition
 


     bravais-lattice index     =            0
     lattice parameter (alat)  =       6.1344  a.u.
     unit-cell volume          =    1141.7010 (a.u.)^3
     number of atoms/cell      =            8
     number of atomic types    =            2
     number of electrons       =        36.00
     number of Kohn-Sham states=           70
     kinetic-energy cutoff     =      60.0000  Ry
     charge density cutoff     =     240.0000  Ry
     scf convergence threshold =      1.0E-08
     mixing beta               =       0.5000
     number of iterations used =            8  plain     mixing
     Exchange-correlation= SLA  PW   PBX  PBC
                           (   1   4   3   4   0   0   0)

     celldm(1)=   6.134387  celldm(2)=   0.000000  celldm(3)=   0.000000
     celldm(4)=   0.000000  celldm(5)=   0.000000  celldm(6)=   0.000000

     crystal axes: (cart. coord. in units of alat)
               a(1) = (   0.865734   0.500504   0.000000 )  
               a(2) = (   0.865734  -0.500504   0.000000 )  
               a(3) = (   0.000000   0.000000   5.707117 )  

     reciprocal axes: (cart. coord. in units 2 pi/alat)
               b(1) = (  0.577544  0.998993  0.000000 )  
               b(2) = (  0.577544 -0.998993  0.000000 )  
               b(3) = (  0.000000  0.000000  0.175220 )  


     PseudoPot. # 1 for Al read from file:
     /home/mainadmin/research/danu/pseudo/Al.pbe-n-kjpaw_psl.1.0.0.UPF
     MD5 check sum: 502b6b27b9c6270cab5dd1084b96fa6d
     Pseudo is Projector augmented-wave + core cor, Zval =  3.0
     Generated using &quot;atomic&quot; code by A. Dal Corso  v.6.3
     Shape of augmentation charge: PSQ
     Using radial grid of 1135 points,  6 beta functions with: 
                l(1) =   0
                l(2) =   0
                l(3) =   1
                l(4) =   1
                l(5) =   2
                l(6) =   2
     Q(r) pseudized with 0 coefficients 


     PseudoPot. # 2 for S  read from file:
     /home/mainadmin/research/danu/pseudo/S.pbe-n-kjpaw_psl.1.0.0.UPF
     MD5 check sum: fb45dfebcf3e72a4e1bd4a866ec2e262
     Pseudo is Projector augmented-wave + core cor, Zval =  6.0
     Generated using &quot;atomic&quot; code by A. Dal Corso  v.6.3
     Shape of augmentation charge: PSQ
     Using radial grid of 1151 points,  6 beta functions with: 
                l(1) =   0
                l(2) =   0
                l(3) =   1
                l(4) =   1
                l(5) =   2
                l(6) =   2
     Q(r) pseudized with 0 coefficients 


     atomic species   valence    mass     pseudopotential
        Al             3.00    26.98100     Al( 1.00)
        S              6.00    32.06500     S ( 1.00)

      2 Sym. Ops. (no inversion) found



   Cartesian axes

     site n.     atom                  positions (alat units)
         1           S   tau(   1) = (   1.1543123   0.0000000   0.0000000  )
         2           Al  tau(   2) = (   0.5771561   0.0000000   0.3770546  )
         3           Al  tau(   3) = (   0.5771561   0.0000000   1.1805542  )
         4           S   tau(   4) = (   1.1543123   0.0000000   1.5578884  )
         5           S   tau(   5) = (   0.5771561   0.0000000   2.8534727  )
         6           Al  tau(   6) = (   1.1543123   0.0000000   3.2309266  )
         7           Al  tau(   7) = (   1.1543123   0.0000000   4.0343399  )
         8           S   tau(   8) = (   0.5771561   0.0000000   4.4115329  )

     number of k points=   140

     Number of k-points >= 100: set verbosity='high' to print them.

     Dense  grid:    71529 G-vectors     FFT dimensions: (  32,  32, 180)

     Estimated max dynamical RAM per process >     103.86 MB

     Estimated total dynamical RAM >       1.62 GB

     Initial potential from superposition of free atoms

     starting charge      35.9907, renormalised to      36.0000
     Starting wfcs are   32 randomized atomic wfcs +   38 random wfcs
     Checking if some PAW data can be deallocated... 

     total cpu time spent up to now is        9.4 secs

     Self-consistent Calculation

     iteration #  1     ecut=    60.00 Ry     beta= 0.50
     Davidson diagonalization with overlap
     ethr =  1.00E-02,  avg # of iterations =  8.3

     Threshold (ethr) on eigenvalues was too large:
     Diagonalizing with lowered threshold

     Davidson diagonalization with overlap
     ethr =  9.28E-04,  avg # of iterations =  1.0

     total cpu time spent up to now is      102.3 secs

     total energy              =    -423.53346274 Ry
     estimated scf accuracy    <       0.33377009 Ry

     iteration #  2     ecut=    60.00 Ry     beta= 0.50
     Davidson diagonalization with overlap
     ethr =  9.27E-04,  avg # of iterations =  1.4

     total cpu time spent up to now is      127.8 secs

     total energy              =    -423.57262708 Ry
     estimated scf accuracy    <       0.04286556 Ry

     iteration #  3     ecut=    60.00 Ry     beta= 0.50
     Davidson diagonalization with overlap
     ethr =  1.19E-04,  avg # of iterations =  5.7

     total cpu time spent up to now is      161.5 secs

     total energy              =    -423.57524518 Ry
     estimated scf accuracy    <       0.06376959 Ry

     iteration #  4     ecut=    60.00 Ry     beta= 0.50
     Davidson diagonalization with overlap
     ethr =  1.19E-04,  avg # of iterations =  1.8

     total cpu time spent up to now is      187.9 secs

     total energy              =    -423.58522693 Ry
     estimated scf accuracy    <       0.00272455 Ry

     iteration #  5     ecut=    60.00 Ry     beta= 0.50
     Davidson diagonalization with overlap
     c_bands:  1 eigenvalues not converged
     c_bands:  1 eigenvalues not converged
     ethr =  7.57E-06,  avg # of iterations =  9.3

     total cpu time spent up to now is      225.0 secs

     total energy              =    -423.58531835 Ry
     estimated scf accuracy    <       0.00024509 Ry

     iteration #  6     ecut=    60.00 Ry     beta= 0.50
     Davidson diagonalization with overlap
     c_bands:  1 eigenvalues not converged
     ethr =  6.81E-07,  avg # of iterations =  5.2

     total cpu time spent up to now is      256.1 secs

     total energy              =    -423.58536344 Ry
     estimated scf accuracy    <       0.00013718 Ry

     iteration #  7     ecut=    60.00 Ry     beta= 0.50
     Davidson diagonalization with overlap
     ethr =  3.81E-07,  avg # of iterations =  1.0

     total cpu time spent up to now is      281.1 secs

     total energy              =    -423.58537788 Ry
     estimated scf accuracy    <       0.00000073 Ry

     iteration #  8     ecut=    60.00 Ry     beta= 0.50
     Davidson diagonalization with overlap
     ethr =  2.03E-09,  avg # of iterations =  1.0

     total cpu time spent up to now is      306.0 secs

     total energy              =    -423.58537802 Ry
     estimated scf accuracy    <       0.00000014 Ry

     iteration #  9     ecut=    60.00 Ry     beta= 0.50
     Davidson diagonalization with overlap
     ethr =  3.88E-10,  avg # of iterations =  1.0

     total cpu time spent up to now is      330.8 secs

     total energy              =    -423.58537804 Ry
     estimated scf accuracy    <       0.00000004 Ry

     iteration # 10     ecut=    60.00 Ry     beta= 0.50
     Davidson diagonalization with overlap
     ethr =  1.04E-10,  avg # of iterations =  1.0

     total cpu time spent up to now is      355.7 secs

     total energy              =    -423.58537805 Ry
     estimated scf accuracy    <       0.00000003 Ry

     iteration # 11     ecut=    60.00 Ry     beta= 0.50
     Davidson diagonalization with overlap
     ethr =  7.16E-11,  avg # of iterations =  1.0

     total cpu time spent up to now is      380.5 secs

     End of self-consistent calculation

     Number of k-points >= 100: set verbosity='high' to print the bands.

     highest occupied, lowest unoccupied level (ev):     4.1964    5.7199

!    total energy              =    -423.58537805 Ry

     total all-electron energy =     -5136.560981 Ry
     estimated scf accuracy    <          6.1E-10 Ry

     The total energy is the sum of the following terms:
     one-electron contribution =      -9.52985915 Ry
     hartree contribution      =      22.27218593 Ry
     xc contribution           =     -31.21979333 Ry
     ewald contribution        =     -81.75490742 Ry
     one-center paw contrib.   =    -323.35300408 Ry

     convergence has been achieved in  11 iterations

     Writing all to output data dir ./work/Al2S2.save/
 
     init_run     :      7.07s CPU      9.29s WALL (       1 calls)
     electrons    :    296.09s CPU    371.08s WALL (       1 calls)

     Called by init_run:
     wfcinit      :      6.80s CPU      8.97s WALL (       1 calls)
     potinit      :      0.12s CPU      0.14s WALL (       1 calls)
     hinit0       :      0.08s CPU      0.10s WALL (       1 calls)

     Called by electrons:
     c_bands      :    262.96s CPU    326.28s WALL (      12 calls)
     sum_band     :     31.43s CPU     43.01s WALL (      12 calls)
     v_of_rho     :      0.06s CPU      0.07s WALL (      12 calls)
     newd         :      0.52s CPU      0.54s WALL (      12 calls)
     PAW_pot      :      1.21s CPU      1.27s WALL (      12 calls)
     mix_rho      :      0.03s CPU      0.03s WALL (      12 calls)

     Called by c_bands:
     init_us_2    :      3.24s CPU      3.43s WALL (    3500 calls)
     init_us_2:cp :      3.23s CPU      3.42s WALL (    3500 calls)
     cegterg      :    248.97s CPU    312.08s WALL (    1680 calls)

     Called by *egterg:
     cdiaghg      :     28.94s CPU     29.79s WALL (    6828 calls)
     h_psi        :    155.91s CPU    216.33s WALL (    7108 calls)
     s_psi        :     14.69s CPU     14.89s WALL (    7108 calls)
     g_psi        :      0.27s CPU      0.28s WALL (    5288 calls)

     Called by h_psi:
     h_psi:calbec :     16.44s CPU     21.18s WALL (    7108 calls)
     vloc_psi     :    116.34s CPU    171.09s WALL (    7108 calls)
     add_vuspsi   :     21.92s CPU     22.79s WALL (    7108 calls)

     General routines
     calbec       :     21.00s CPU     27.03s WALL (    8788 calls)
     fft          :      0.05s CPU      0.06s WALL (     133 calls)
     ffts         :      0.01s CPU      0.01s WALL (      12 calls)
     fftw         :    133.95s CPU    196.10s WALL (  691108 calls)
 
     Parallel routines
 
     PWSCF        :   5m 4.23s CPU   6m23.32s WALL

 
   This run was terminated on:  15:13:57  18Jun2023            

=------------------------------------------------------------------------------=
   JOB DONE.
=------------------------------------------------------------------------------=
