
     Program BANDS v.7.1 starts on  7Mar2023 at 12:10:24 

     This program is part of the open-source Quantum ESPRESSO suite
     for quantum simulation of materials; please cite
         "P. Giannozzi et al., J. Phys.:Condens. Matter 21 395502 (2009);
         "P. Giannozzi et al., J. Phys.:Condens. Matter 29 465901 (2017);
         "P. Giannozzi et al., J. Chem. Phys. 152 154105 (2020);
          URL http://www.quantum-espresso.org", 
     in publications or presentations arising from this work. More details at
     http://www.quantum-espresso.org/quote

     Parallel version (MPI), running on    22 processors

     MPI processes distributed on     1 nodes
     R & G space division:  proc/nbgrp/npool/nimage =      22
     97716 MiB available memory on the printing compute node when the environment starts
 

     Reading xml data from directory:

     ./work/Al2SO.save/
     Message from routine volume:
     axis vectors are left-handed
     file Al.pbe-n-kjpaw_psl.1.0.0.UPF: wavefunction(s)  3S 3P renormalized
     file O.pbe-n-kjpaw_psl.1.0.0.UPF: wavefunction(s)  2S 2P renormalized
     file S.pbe-n-kjpaw_psl.1.0.0.UPF: wavefunction(s)  3S 3P renormalized

     IMPORTANT: XC functional enforced from input :
     Exchange-correlation= PBE
                           (   1   4   3   4   0   0   0)
     Any further DFT definition will be discarded
     Please, verify this is what you really want

 
     Parallelization info
     --------------------
     sticks:   dense  smooth     PW     G-vecs:    dense   smooth      PW
     Min          28      28      8                 2898     2898     458
     Max          29      29      9                 2910     2910     473
     Sum         625     625    187                63851    63851   10325
 
     Using Slab Decomposition
 

     Check: negative core charge=   -0.000003
     Reading collected, re-writing distributed wavefunctions
     high-symmetry point:  0.0000 0.0000 0.0000   x coordinate   0.0000
     high-symmetry point:  0.5773-0.3334-0.0000   x coordinate   0.6667
     high-symmetry point:  0.5773 0.0000-0.0000   x coordinate   1.0001
     high-symmetry point:  0.0000 0.0000 0.0000   x coordinate   1.5774

     Plottable bands (eV) written to file AA.bands.gnu
     Bands written to file AA.bands

 **************************************************************************

                    xk=(   0.00000,   0.00000,   0.00000  )

     point group C_s (m)    
     there are  2 classes
     the character table:

       E     s    
A'     1.00  1.00
A''    1.00 -1.00

     the symmetry operations in each class and the name of the first element:

     E        1
                                                                 
     s        2
                                                                 

     Band symmetry, C_s (m)     point group:

     e(  1 -  1) =    -15.22500  eV     1   --> A'             
     e(  2 -  2) =    -15.21033  eV     1   --> A'             
     e(  3 -  3) =     -9.67146  eV     1   --> A'             
     e(  4 -  4) =     -9.65692  eV     1   --> A'             
     e(  5 -  5) =     -2.15192  eV     1   --> A'             
     e(  6 -  6) =     -2.02657  eV     1   --> A'             
     e(  7 -  7) =     -0.21712  eV     1   --> A'             
     e(  8 -  8) =     -0.14416  eV     1   --> A'             
     e(  9 -  9) =     -0.14376  eV     1   --> A''            
     e( 10 - 10) =     -0.12735  eV     1   --> A'             
     e( 11 - 11) =     -0.12695  eV     1   --> A''            
     e( 12 - 12) =      0.17084  eV     1   --> A'             
     e( 13 - 13) =      2.34280  eV     1   --> A'             
     e( 14 - 14) =      2.89024  eV     1   --> A'             
     e( 15 - 15) =      4.20837  eV     1   --> A'             
     e( 16 - 16) =      4.20884  eV     1   --> A''            
     e( 17 - 17) =      4.22458  eV     1   --> A'             
     e( 18 - 18) =      4.22505  eV     1   --> A''            
     e( 19 - 19) =      5.58843  eV     1   --> A'             
     e( 20 - 20) =      6.20129  eV     1   --> A'             
     e( 21 - 21) =      9.22093  eV     1   --> A'             
     e( 22 - 22) =     10.45705  eV     1   --> A'             
     e( 23 - 23) =     10.63663  eV     1   --> A'             
     e( 24 - 24) =     10.97004  eV     1   --> A'             
     e( 25 - 25) =     11.33356  eV     1   --> A'             
     e( 26 - 26) =     11.70313  eV     1   --> A'             
     e( 27 - 27) =     11.70502  eV     1   --> A''            
     e( 28 - 28) =     11.72391  eV     1   --> A'             
     e( 29 - 29) =     11.72581  eV     1   --> A''            
     e( 30 - 30) =     13.21705  eV     1   --> A'             
     e( 31 - 31) =     13.21840  eV     1   --> A''            
     e( 32 - 32) =     13.25208  eV     1   --> A'             
     e( 33 - 33) =     13.25344  eV     1   --> A''            
     e( 34 - 34) =     13.36679  eV     1   --> A'             
     e( 35 - 35) =     15.07680  eV     1   --> A'             
     e( 36 - 36) =     15.07817  eV     1   --> A''            
     e( 37 - 37) =     15.11960  eV     1   --> A'             
     e( 38 - 38) =     15.12094  eV     1   --> A''            
     e( 39 - 39) =     15.24076  eV     1   --> A'             
     e( 40 - 40) =     15.84439  eV     1   --> A'             
     e( 41 - 41) =     17.23222  eV     1   --> A'             
     e( 42 - 42) =     17.23401  eV     1   --> A''            
     e( 43 - 43) =     17.27686  eV     1   --> A'             
     e( 44 - 44) =     17.27876  eV     1   --> A''            
     e( 45 - 45) =     18.39719  eV     1   --> A'             
     e( 46 - 46) =     18.46499  eV     1   --> A'             
     e( 47 - 47) =     18.70718  eV     1   --> A'             
     e( 48 - 48) =     19.18838  eV     1   --> A'             
     e( 49 - 49) =     19.45637  eV     1   --> A'             
     e( 50 - 50) =     19.45722  eV     1   --> A''            
     e( 51 - 51) =     19.57917  eV     1   --> A'             
     e( 52 - 52) =     19.58012  eV     1   --> A''            
     e( 53 - 53) =     19.88297  eV     1   --> A'             
     e( 54 - 54) =     20.67259  eV     1   --> A'             
     e( 55 - 55) =     20.90232  eV     1   --> A'             
     e( 56 - 56) =     21.36499  eV     1   --> A'             
     e( 57 - 57) =     22.01397  eV     1   --> A'             
     e( 58 - 58) =     22.01589  eV     1   --> A''            
     e( 59 - 59) =     22.33536  eV     1   --> A'             
     e( 60 - 60) =     22.33764  eV     1   --> A''            
     e( 61 - 61) =     23.00907  eV     1   --> A'             
     e( 62 - 62) =     23.49082  eV     1   --> A'             
     e( 63 - 63) =     23.74209  eV     1   --> A'             
     e( 64 - 64) =     23.74271  eV     1   --> A''            
     e( 65 - 65) =     24.20775  eV     1   --> A'             
     e( 66 - 66) =     24.20895  eV     1   --> A''            
     e( 67 - 67) =     25.29286  eV     1   --> A'             
     e( 68 - 68) =     26.05901  eV     1   --> A'             
     e( 69 - 69) =     26.06111  eV     1   --> A''            
     e( 70 - 70) =     26.25739  eV     1   --> A'             
     e( 71 - 71) =     26.25988  eV     1   --> A''            
     e( 72 - 72) =     26.47454  eV     1   --> A'             

 **************************************************************************

 **************************************************************************

                    xk=(   0.01924,  -0.01111,  -0.00000  )

     point group C_1 (1)    
     there are  1 classes
     the character table:

       E    
A      1.00

     the symmetry operations in each class and the name of the first element:

     E        1
                                                                 

     Band symmetry, C_1 (1)     point group:

     e(  1 -  1) =    -15.22318  eV     1   --> A              
     e(  2 -  2) =    -15.20852  eV     1   --> A              
     e(  3 -  3) =     -9.66660  eV     1   --> A              
     e(  4 -  4) =     -9.65206  eV     1   --> A              
     e(  5 -  5) =     -2.14771  eV     1   --> A              
     e(  6 -  6) =     -2.02283  eV     1   --> A              
     e(  7 -  7) =     -0.21404  eV     1   --> A              
     e(  8 -  8) =     -0.15945  eV     1   --> A              
     e(  9 -  9) =     -0.14598  eV     1   --> A              
     e( 10 - 10) =     -0.14259  eV     1   --> A              
     e( 11 - 11) =     -0.12917  eV     1   --> A              
     e( 12 - 12) =      0.17527  eV     1   --> A              
     e( 13 - 13) =      2.35281  eV     1   --> A              
     e( 14 - 14) =      2.89803  eV     1   --> A              
     e( 15 - 15) =      4.17419  eV     1   --> A              
     e( 16 - 16) =      4.19042  eV     1   --> A              
     e( 17 - 17) =      4.20114  eV     1   --> A              
     e( 18 - 18) =      4.21736  eV     1   --> A              
     e( 19 - 19) =      5.60272  eV     1   --> A              
     e( 20 - 20) =      6.21420  eV     1   --> A              
     e( 21 - 21) =      9.22383  eV     1   --> A              
     e( 22 - 22) =     10.47878  eV     1   --> A              
     e( 23 - 23) =     10.66361  eV     1   --> A              
     e( 24 - 24) =     10.97191  eV     1   --> A              
     e( 25 - 25) =     11.32952  eV     1   --> A              
     e( 26 - 26) =     11.67730  eV     1   --> A              
     e( 27 - 27) =     11.70779  eV     1   --> A              
     e( 28 - 28) =     11.71653  eV     1   --> A              
     e( 29 - 29) =     11.73734  eV     1   --> A              
     e( 30 - 30) =     13.17811  eV     1   --> A              
     e( 31 - 31) =     13.20761  eV     1   --> A              
     e( 32 - 32) =     13.22336  eV     1   --> A              
     e( 33 - 33) =     13.25863  eV     1   --> A              
     e( 34 - 34) =     13.35843  eV     1   --> A              
     e( 35 - 35) =     15.04025  eV     1   --> A              
     e( 36 - 36) =     15.05240  eV     1   --> A              
     e( 37 - 37) =     15.06493  eV     1   --> A              
     e( 38 - 38) =     15.10992  eV     1   --> A              
     e( 39 - 39) =     15.28293  eV     1   --> A              
     e( 40 - 40) =     15.90181  eV     1   --> A              
     e( 41 - 41) =     17.20026  eV     1   --> A              
     e( 42 - 42) =     17.25064  eV     1   --> A              
     e( 43 - 43) =     17.25968  eV     1   --> A              
     e( 44 - 44) =     17.28964  eV     1   --> A              
     e( 45 - 45) =     18.42918  eV     1   --> A              
     e( 46 - 46) =     18.51006  eV     1   --> A              
     e( 47 - 47) =     18.73683  eV     1   --> A              
     e( 48 - 48) =     19.22762  eV     1   --> A              
     e( 49 - 49) =     19.43214  eV     1   --> A              
     e( 50 - 50) =     19.45762  eV     1   --> A              
     e( 51 - 51) =     19.55423  eV     1   --> A              
     e( 52 - 52) =     19.58151  eV     1   --> A              
     e( 53 - 53) =     19.90939  eV     1   --> A              
     e( 54 - 54) =     20.71163  eV     1   --> A              
     e( 55 - 55) =     20.93751  eV     1   --> A              
     e( 56 - 56) =     21.34113  eV     1   --> A              
     e( 57 - 57) =     22.03762  eV     1   --> A              
     e( 58 - 58) =     22.04176  eV     1   --> A              
     e( 59 - 59) =     22.25436  eV     1   --> A              
     e( 60 - 60) =     22.33913  eV     1   --> A              
     e( 61 - 61) =     23.09238  eV     1   --> A              
     e( 62 - 62) =     23.47816  eV     1   --> A              
     e( 63 - 63) =     23.73384  eV     1   --> A              
     e( 64 - 64) =     23.74239  eV     1   --> A              
     e( 65 - 65) =     24.19605  eV     1   --> A              
     e( 66 - 66) =     24.20119  eV     1   --> A              
     e( 67 - 67) =     25.30569  eV     1   --> A              
     e( 68 - 68) =     26.01874  eV     1   --> A              
     e( 69 - 69) =     26.09436  eV     1   --> A              
     e( 70 - 70) =     26.23696  eV     1   --> A              
     e( 71 - 71) =     26.24550  eV     1   --> A              
     e( 72 - 72) =     26.49948  eV     1   --> A              

 **************************************************************************

 **************************************************************************

                    xk=(   0.03849,  -0.02223,  -0.00000  )

     Band symmetry, C_1 (1)     point group:

     e(  1 -  1) =    -15.21776  eV     1   --> A              
     e(  2 -  2) =    -15.20310  eV     1   --> A              
     e(  3 -  3) =     -9.65202  eV     1   --> A              
     e(  4 -  4) =     -9.63749  eV     1   --> A              
     e(  5 -  5) =     -2.13522  eV     1   --> A              
     e(  6 -  6) =     -2.01177  eV     1   --> A              
     e(  7 -  7) =     -0.21293  eV     1   --> A              
     e(  8 -  8) =     -0.20121  eV     1   --> A              
     e(  9 -  9) =     -0.18160  eV     1   --> A              
     e( 10 - 10) =     -0.15233  eV     1   --> A              
     e( 11 - 11) =     -0.13553  eV     1   --> A              
     e( 12 - 12) =      0.18775  eV     1   --> A              
     e( 13 - 13) =      2.38177  eV     1   --> A              
     e( 14 - 14) =      2.92049  eV     1   --> A              
     e( 15 - 15) =      4.07451  eV     1   --> A              
     e( 16 - 16) =      4.09098  eV     1   --> A              
     e( 17 - 17) =      4.17832  eV     1   --> A              
     e( 18 - 18) =      4.19454  eV     1   --> A              
     e( 19 - 19) =      5.64460  eV     1   --> A              
     e( 20 - 20) =      6.25238  eV     1   --> A              
     e( 21 - 21) =      9.23170  eV     1   --> A              
     e( 22 - 22) =     10.53544  eV     1   --> A              
     e( 23 - 23) =     10.74012  eV     1   --> A              
     e( 24 - 24) =     10.97839  eV     1   --> A              
     e( 25 - 25) =     11.31448  eV     1   --> A              
     e( 26 - 26) =     11.59612  eV     1   --> A              
     e( 27 - 27) =     11.67136  eV     1   --> A              
     e( 28 - 28) =     11.75237  eV     1   --> A              
     e( 29 - 29) =     11.77359  eV     1   --> A              
     e( 30 - 30) =     13.06806  eV     1   --> A              
     e( 31 - 31) =     13.08759  eV     1   --> A              
     e( 32 - 32) =     13.23920  eV     1   --> A              
     e( 33 - 33) =     13.27459  eV     1   --> A              
     e( 34 - 34) =     13.33037  eV     1   --> A              
     e( 35 - 35) =     14.86835  eV     1   --> A              
     e( 36 - 36) =     14.96524  eV     1   --> A              
     e( 37 - 37) =     15.02650  eV     1   --> A              
     e( 38 - 38) =     15.07683  eV     1   --> A              
     e( 39 - 39) =     15.39472  eV     1   --> A              
     e( 40 - 40) =     16.03029  eV     1   --> A              
     e( 41 - 41) =     17.11489  eV     1   --> A              
     e( 42 - 42) =     17.21887  eV     1   --> A              
     e( 43 - 43) =     17.29362  eV     1   --> A              
     e( 44 - 44) =     17.31666  eV     1   --> A              
     e( 45 - 45) =     18.51587  eV     1   --> A              
     e( 46 - 46) =     18.63644  eV     1   --> A              
     e( 47 - 47) =     18.82247  eV     1   --> A              
     e( 48 - 48) =     19.31772  eV     1   --> A              
     e( 49 - 49) =     19.36956  eV     1   --> A              
     e( 50 - 50) =     19.46613  eV     1   --> A              
     e( 51 - 51) =     19.49320  eV     1   --> A              
     e( 52 - 52) =     19.59831  eV     1   --> A              
     e( 53 - 53) =     19.98604  eV     1   --> A              
     e( 54 - 54) =     20.82143  eV     1   --> A              
     e( 55 - 55) =     21.02492  eV     1   --> A              
     e( 56 - 56) =     21.28918  eV     1   --> A              
     e( 57 - 57) =     22.08362  eV     1   --> A              
     e( 58 - 58) =     22.09604  eV     1   --> A              
     e( 59 - 59) =     22.12488  eV     1   --> A              
     e( 60 - 60) =     22.34055  eV     1   --> A              
     e( 61 - 61) =     23.24978  eV     1   --> A              
     e( 62 - 62) =     23.44160  eV     1   --> A              
     e( 63 - 63) =     23.70691  eV     1   --> A              
     e( 64 - 64) =     23.77088  eV     1   --> A              
     e( 65 - 65) =     24.15761  eV     1   --> A              
     e( 66 - 66) =     24.17683  eV     1   --> A              
     e( 67 - 67) =     25.34277  eV     1   --> A              
     e( 68 - 68) =     25.91834  eV     1   --> A              
     e( 69 - 69) =     26.18025  eV     1   --> A              
     e( 70 - 70) =     26.19693  eV     1   --> A              
     e( 71 - 71) =     26.20516  eV     1   --> A              
     e( 72 - 72) =     26.56645  eV     1   --> A              

 **************************************************************************

 **************************************************************************

                    xk=(   0.05773,  -0.03334,  -0.00000  )

     Band symmetry, C_1 (1)     point group:

     e(  1 -  1) =    -15.20880  eV     1   --> A              
     e(  2 -  2) =    -15.19414  eV     1   --> A              
     e(  3 -  3) =     -9.62780  eV     1   --> A              
     e(  4 -  4) =     -9.61327  eV     1   --> A              
     e(  5 -  5) =     -2.11482  eV     1   --> A              
     e(  6 -  6) =     -1.99391  eV     1   --> A              
     e(  7 -  7) =     -0.28044  eV     1   --> A              
     e(  8 -  8) =     -0.25911  eV     1   --> A              
     e(  9 -  9) =     -0.17985  eV     1   --> A              
     e( 10 - 10) =     -0.16297  eV     1   --> A              
     e( 11 - 11) =     -0.14619  eV     1   --> A              
     e( 12 - 12) =      0.20687  eV     1   --> A              
     e( 13 - 13) =      2.42678  eV     1   --> A              
     e( 14 - 14) =      2.95504  eV     1   --> A              
     e( 15 - 15) =      3.91809  eV     1   --> A              
     e( 16 - 16) =      3.93517  eV     1   --> A              
     e( 17 - 17) =      4.14007  eV     1   --> A              
     e( 18 - 18) =      4.15629  eV     1   --> A              
     e( 19 - 19) =      5.71184  eV     1   --> A              
     e( 20 - 20) =      6.31440  eV     1   --> A              
     e( 21 - 21) =      9.24262  eV     1   --> A              
     e( 22 - 22) =     10.60076  eV     1   --> A              
     e( 23 - 23) =     10.85277  eV     1   --> A              
     e( 24 - 24) =     10.99093  eV     1   --> A              
     e( 25 - 25) =     11.28340  eV     1   --> A              
     e( 26 - 26) =     11.46909  eV     1   --> A              
     e( 27 - 27) =     11.63645  eV     1   --> A              
     e( 28 - 28) =     11.81075  eV     1   --> A              
     e( 29 - 29) =     11.83407  eV     1   --> A              
     e( 30 - 30) =     12.90543  eV     1   --> A              
     e( 31 - 31) =     12.91846  eV     1   --> A              
     e( 32 - 32) =     13.26511  eV     1   --> A              
     e( 33 - 33) =     13.27345  eV     1   --> A              
     e( 34 - 34) =     13.31040  eV     1   --> A              
     e( 35 - 35) =     14.64687  eV     1   --> A              
     e( 36 - 36) =     14.84810  eV     1   --> A              
     e( 37 - 37) =     14.97005  eV     1   --> A              
     e( 38 - 38) =     15.01957  eV     1   --> A              
     e( 39 - 39) =     15.54768  eV     1   --> A              
     e( 40 - 40) =     16.16204  eV     1   --> A              
     e( 41 - 41) =     17.00266  eV     1   --> A              
     e( 42 - 42) =     17.18374  eV     1   --> A              
     e( 43 - 43) =     17.34309  eV     1   --> A              
     e( 44 - 44) =     17.35054  eV     1   --> A              
     e( 45 - 45) =     18.64503  eV     1   --> A              
     e( 46 - 46) =     18.79708  eV     1   --> A              
     e( 47 - 47) =     18.94723  eV     1   --> A              
     e( 48 - 48) =     19.30075  eV     1   --> A              
     e( 49 - 49) =     19.32371  eV     1   --> A              
     e( 50 - 50) =     19.46780  eV     1   --> A              
     e( 51 - 51) =     19.51254  eV     1   --> A              
     e( 52 - 52) =     19.69615  eV     1   --> A              
     e( 53 - 53) =     20.10413  eV     1   --> A              
     e( 54 - 54) =     20.97929  eV     1   --> A              
     e( 55 - 55) =     21.09194  eV     1   --> A              
     e( 56 - 56) =     21.27835  eV     1   --> A              
     e( 57 - 57) =     21.91173  eV     1   --> A              
     e( 58 - 58) =     22.16545  eV     1   --> A              
     e( 59 - 59) =     22.26842  eV     1   --> A              
     e( 60 - 60) =     22.33565  eV     1   --> A              
     e( 61 - 61) =     23.34444  eV     1   --> A              
     e( 62 - 62) =     23.38907  eV     1   --> A              
     e( 63 - 63) =     23.67892  eV     1   --> A              
     e( 64 - 64) =     23.89071  eV     1   --> A              
     e( 65 - 65) =     24.09189  eV     1   --> A              
     e( 66 - 66) =     24.12437  eV     1   --> A              
     e( 67 - 67) =     25.40012  eV     1   --> A              
     e( 68 - 68) =     25.80075  eV     1   --> A              
     e( 69 - 69) =     26.12049  eV     1   --> A              
     e( 70 - 70) =     26.17161  eV     1   --> A              
     e( 71 - 71) =     26.31028  eV     1   --> A              
     e( 72 - 72) =     26.65489  eV     1   --> A              

 **************************************************************************

 **************************************************************************

                    xk=(   0.07698,  -0.04445,  -0.00000  )

     Band symmetry, C_1 (1)     point group:

     e(  1 -  1) =    -15.19639  eV     1   --> A              
     e(  2 -  2) =    -15.18173  eV     1   --> A              
     e(  3 -  3) =     -9.59403  eV     1   --> A              
     e(  4 -  4) =     -9.57951  eV     1   --> A              
     e(  5 -  5) =     -2.08723  eV     1   --> A              
     e(  6 -  6) =     -1.97017  eV     1   --> A              
     e(  7 -  7) =     -0.37540  eV     1   --> A              
     e(  8 -  8) =     -0.34528  eV     1   --> A              
     e(  9 -  9) =     -0.17812  eV     1   --> A              
     e( 10 - 10) =     -0.16145  eV     1   --> A              
     e( 11 - 11) =     -0.15543  eV     1   --> A              
     e( 12 - 12) =      0.23173  eV     1   --> A              
     e( 13 - 13) =      2.48356  eV     1   --> A              
     e( 14 - 14) =      2.99732  eV     1   --> A              
     e( 15 - 15) =      3.71720  eV     1   --> A              
     e( 16 - 16) =      3.73471  eV     1   --> A              
     e( 17 - 17) =      4.08609  eV     1   --> A              
     e( 18 - 18) =      4.10231  eV     1   --> A              
     e( 19 - 19) =      5.80203  eV     1   --> A              
     e( 20 - 20) =      6.39829  eV     1   --> A              
     e( 21 - 21) =      9.25450  eV     1   --> A              
     e( 22 - 22) =     10.63510  eV     1   --> A              
     e( 23 - 23) =     10.97492  eV     1   --> A              
     e( 24 - 24) =     10.99817  eV     1   --> A              
     e( 25 - 25) =     11.25195  eV     1   --> A              
     e( 26 - 26) =     11.31714  eV     1   --> A              
     e( 27 - 27) =     11.62363  eV     1   --> A              
     e( 28 - 28) =     11.88336  eV     1   --> A              
     e( 29 - 29) =     11.91472  eV     1   --> A              
     e( 30 - 30) =     12.71051  eV     1   --> A              
     e( 31 - 31) =     12.72391  eV     1   --> A              
     e( 32 - 32) =     13.21045  eV     1   --> A              
     e( 33 - 33) =     13.30629  eV     1   --> A              
     e( 34 - 34) =     13.35038  eV     1   --> A              
     e( 35 - 35) =     14.41928  eV     1   --> A              
     e( 36 - 36) =     14.70405  eV     1   --> A              
     e( 37 - 37) =     14.91333  eV     1   --> A              
     e( 38 - 38) =     14.93818  eV     1   --> A              
     e( 39 - 39) =     15.71381  eV     1   --> A              
     e( 40 - 40) =     16.24208  eV     1   --> A              
     e( 41 - 41) =     16.88767  eV     1   --> A              
     e( 42 - 42) =     17.17223  eV     1   --> A              
     e( 43 - 43) =     17.38338  eV     1   --> A              
     e( 44 - 44) =     17.39924  eV     1   --> A              
     e( 45 - 45) =     18.80213  eV     1   --> A              
     e( 46 - 46) =     18.90033  eV     1   --> A              
     e( 47 - 47) =     19.04947  eV     1   --> A              
     e( 48 - 48) =     19.22636  eV     1   --> A              
     e( 49 - 49) =     19.30664  eV     1   --> A              
     e( 50 - 50) =     19.46498  eV     1   --> A              
     e( 51 - 51) =     19.66032  eV     1   --> A              
     e( 52 - 52) =     19.91822  eV     1   --> A              
     e( 53 - 53) =     20.24619  eV     1   --> A              
     e( 54 - 54) =     21.06590  eV     1   --> A              
     e( 55 - 55) =     21.15048  eV     1   --> A              
     e( 56 - 56) =     21.36546  eV     1   --> A              
     e( 57 - 57) =     21.77207  eV     1   --> A              
     e( 58 - 58) =     22.23731  eV     1   --> A              
     e( 59 - 59) =     22.33928  eV     1   --> A              
     e( 60 - 60) =     22.48125  eV     1   --> A              
     e( 61 - 61) =     23.30298  eV     1   --> A              
     e( 62 - 62) =     23.34336  eV     1   --> A              
     e( 63 - 63) =     23.69015  eV     1   --> A              
     e( 64 - 64) =     23.99146  eV     1   --> A              
     e( 65 - 65) =     24.03390  eV     1   --> A              
     e( 66 - 66) =     24.11836  eV     1   --> A              
     e( 67 - 67) =     25.47369  eV     1   --> A              
     e( 68 - 68) =     25.69826  eV     1   --> A              
     e( 69 - 69) =     26.00687  eV     1   --> A              
     e( 70 - 70) =     26.21211  eV     1   --> A              
     e( 71 - 71) =     26.33049  eV     1   --> A              
     e( 72 - 72) =     26.71765  eV     1   --> A              

 **************************************************************************

 **************************************************************************

                    xk=(   0.09622,  -0.05556,  -0.00000  )

     Band symmetry, C_1 (1)     point group:

     e(  1 -  1) =    -15.18068  eV     1   --> A              
     e(  2 -  2) =    -15.16603  eV     1   --> A              
     e(  3 -  3) =     -9.55087  eV     1   --> A              
     e(  4 -  4) =     -9.53636  eV     1   --> A              
     e(  5 -  5) =     -2.05359  eV     1   --> A              
     e(  6 -  6) =     -1.94209  eV     1   --> A              
     e(  7 -  7) =     -0.48560  eV     1   --> A              
     e(  8 -  8) =     -0.44529  eV     1   --> A              
     e(  9 -  9) =     -0.19780  eV     1   --> A              
     e( 10 - 10) =     -0.18104  eV     1   --> A              
     e( 11 - 11) =     -0.12360  eV     1   --> A              
     e( 12 - 12) =      0.26195  eV     1   --> A              
     e( 13 - 13) =      2.54648  eV     1   --> A              
     e( 14 - 14) =      3.03854  eV     1   --> A              
     e( 15 - 15) =      3.48782  eV     1   --> A              
     e( 16 - 16) =      3.50376  eV     1   --> A              
     e( 17 - 17) =      4.01606  eV     1   --> A              
     e( 18 - 18) =      4.03228  eV     1   --> A              
     e( 19 - 19) =      5.91306  eV     1   --> A              
     e( 20 - 20) =      6.50179  eV     1   --> A              
     e( 21 - 21) =      9.26556  eV     1   --> A              
     e( 22 - 22) =     10.60660  eV     1   --> A              
     e( 23 - 23) =     10.95546  eV     1   --> A              
     e( 24 - 24) =     11.01072  eV     1   --> A              
     e( 25 - 25) =     11.22815  eV     1   --> A              
     e( 26 - 26) =     11.27745  eV     1   --> A              
     e( 27 - 27) =     11.63767  eV     1   --> A              
     e( 28 - 28) =     11.94492  eV     1   --> A              
     e( 29 - 29) =     11.99929  eV     1   --> A              
     e( 30 - 30) =     12.50183  eV     1   --> A              
     e( 31 - 31) =     12.52336  eV     1   --> A              
     e( 32 - 32) =     13.15311  eV     1   --> A              
     e( 33 - 33) =     13.36811  eV     1   --> A              
     e( 34 - 34) =     13.41338  eV     1   --> A              
     e( 35 - 35) =     14.21409  eV     1   --> A              
     e( 36 - 36) =     14.53324  eV     1   --> A              
     e( 37 - 37) =     14.83637  eV     1   --> A              
     e( 38 - 38) =     14.87901  eV     1   --> A              
     e( 39 - 39) =     15.87132  eV     1   --> A              
     e( 40 - 40) =     16.24759  eV     1   --> A              
     e( 41 - 41) =     16.78448  eV     1   --> A              
     e( 42 - 42) =     17.15257  eV     1   --> A              
     e( 43 - 43) =     17.39562  eV     1   --> A              
     e( 44 - 44) =     17.50100  eV     1   --> A              
     e( 45 - 45) =     18.89114  eV     1   --> A              
     e( 46 - 46) =     18.93938  eV     1   --> A              
     e( 47 - 47) =     19.08323  eV     1   --> A              
     e( 48 - 48) =     19.17201  eV     1   --> A              
     e( 49 - 49) =     19.43595  eV     1   --> A              
     e( 50 - 50) =     19.44885  eV     1   --> A              
     e( 51 - 51) =     19.94513  eV     1   --> A              
     e( 52 - 52) =     20.19681  eV     1   --> A              
     e( 53 - 53) =     20.39422  eV     1   --> A              
     e( 54 - 54) =     21.04126  eV     1   --> A              
     e( 55 - 55) =     21.26770  eV     1   --> A              
     e( 56 - 56) =     21.46335  eV     1   --> A              
     e( 57 - 57) =     21.69366  eV     1   --> A              
     e( 58 - 58) =     22.30314  eV     1   --> A              
     e( 59 - 59) =     22.40331  eV     1   --> A              
     e( 60 - 60) =     22.76303  eV     1   --> A              
     e( 61 - 61) =     23.21601  eV     1   --> A              
     e( 62 - 62) =     23.26107  eV     1   --> A              
     e( 63 - 63) =     23.75448  eV     1   --> A              
     e( 64 - 64) =     23.83811  eV     1   --> A              
     e( 65 - 65) =     23.95019  eV     1   --> A              
     e( 66 - 66) =     24.37402  eV     1   --> A              
     e( 67 - 67) =     25.55963  eV     1   --> A              
     e( 68 - 68) =     25.62838  eV     1   --> A              
     e( 69 - 69) =     25.86074  eV     1   --> A              
     e( 70 - 70) =     26.16003  eV     1   --> A              
     e( 71 - 71) =     26.33559  eV     1   --> A              
     e( 72 - 72) =     26.81226  eV     1   --> A              

 **************************************************************************

 **************************************************************************

                    xk=(   0.11547,  -0.06668,  -0.00000  )

     Band symmetry, C_1 (1)     point group:

     e(  1 -  1) =    -15.16185  eV     1   --> A              
     e(  2 -  2) =    -15.14720  eV     1   --> A              
     e(  3 -  3) =     -9.49853  eV     1   --> A              
     e(  4 -  4) =     -9.48403  eV     1   --> A              
     e(  5 -  5) =     -2.01581  eV     1   --> A              
     e(  6 -  6) =     -1.91210  eV     1   --> A              
     e(  7 -  7) =     -0.60419  eV     1   --> A              
     e(  8 -  8) =     -0.55205  eV     1   --> A              
     e(  9 -  9) =     -0.22219  eV     1   --> A              
     e( 10 - 10) =     -0.20545  eV     1   --> A              
     e( 11 - 11) =     -0.08490  eV     1   --> A              
     e( 12 - 12) =      0.29718  eV     1   --> A              
     e( 13 - 13) =      2.60575  eV     1   --> A              
     e( 14 - 14) =      3.03785  eV     1   --> A              
     e( 15 - 15) =      3.24989  eV     1   --> A              
     e( 16 - 16) =      3.28740  eV     1   --> A              
     e( 17 - 17) =      3.92970  eV     1   --> A              
     e( 18 - 18) =      3.94593  eV     1   --> A              
     e( 19 - 19) =      6.04296  eV     1   --> A              
     e( 20 - 20) =      6.62243  eV     1   --> A              
     e( 21 - 21) =      9.27422  eV     1   --> A              
     e( 22 - 22) =     10.50629  eV     1   --> A              
     e( 23 - 23) =     10.84196  eV     1   --> A              
     e( 24 - 24) =     10.87950  eV     1   --> A              
     e( 25 - 25) =     11.31704  eV     1   --> A              
     e( 26 - 26) =     11.34704  eV     1   --> A              
     e( 27 - 27) =     11.66947  eV     1   --> A              
     e( 28 - 28) =     11.95179  eV     1   --> A              
     e( 29 - 29) =     12.04682  eV     1   --> A              
     e( 30 - 30) =     12.29396  eV     1   --> A              
     e( 31 - 31) =     12.34317  eV     1   --> A              
     e( 32 - 32) =     13.13041  eV     1   --> A              
     e( 33 - 33) =     13.46978  eV     1   --> A              
     e( 34 - 34) =     13.51122  eV     1   --> A              
     e( 35 - 35) =     14.04988  eV     1   --> A              
     e( 36 - 36) =     14.33985  eV     1   --> A              
     e( 37 - 37) =     14.72860  eV     1   --> A              
     e( 38 - 38) =     14.87991  eV     1   --> A              
     e( 39 - 39) =     16.00572  eV     1   --> A              
     e( 40 - 40) =     16.19760  eV     1   --> A              
     e( 41 - 41) =     16.69849  eV     1   --> A              
     e( 42 - 42) =     17.09029  eV     1   --> A              
     e( 43 - 43) =     17.37263  eV     1   --> A              
     e( 44 - 44) =     17.64240  eV     1   --> A              
     e( 45 - 45) =     18.85962  eV     1   --> A              
     e( 46 - 46) =     18.91542  eV     1   --> A              
     e( 47 - 47) =     19.09377  eV     1   --> A              
     e( 48 - 48) =     19.30465  eV     1   --> A              
     e( 49 - 49) =     19.42765  eV     1   --> A              
     e( 50 - 50) =     19.61419  eV     1   --> A              
     e( 51 - 51) =     20.30817  eV     1   --> A              
     e( 52 - 52) =     20.39442  eV     1   --> A              
     e( 53 - 53) =     20.62731  eV     1   --> A              
     e( 54 - 54) =     21.06075  eV     1   --> A              
     e( 55 - 55) =     21.27955  eV     1   --> A              
     e( 56 - 56) =     21.54082  eV     1   --> A              
     e( 57 - 57) =     21.71437  eV     1   --> A              
     e( 58 - 58) =     22.35941  eV     1   --> A              
     e( 59 - 59) =     22.57429  eV     1   --> A              
     e( 60 - 60) =     23.05816  eV     1   --> A              
     e( 61 - 61) =     23.14866  eV     1   --> A              
     e( 62 - 62) =     23.17426  eV     1   --> A              
     e( 63 - 63) =     23.63744  eV     1   --> A              
     e( 64 - 64) =     23.85818  eV     1   --> A              
     e( 65 - 65) =     23.89145  eV     1   --> A              
     e( 66 - 66) =     24.60239  eV     1   --> A              
     e( 67 - 67) =     25.57391  eV     1   --> A              
     e( 68 - 68) =     25.62690  eV     1   --> A              
     e( 69 - 69) =     25.74664  eV     1   --> A              
     e( 70 - 70) =     25.98351  eV     1   --> A              
     e( 71 - 71) =     26.51830  eV     1   --> A              
     e( 72 - 72) =     26.86525  eV     1   --> A              

 **************************************************************************

 **************************************************************************

                    xk=(   0.13471,  -0.07779,  -0.00000  )

     Band symmetry, C_1 (1)     point group:

     e(  1 -  1) =    -15.14012  eV     1   --> A              
     e(  2 -  2) =    -15.12549  eV     1   --> A              
     e(  3 -  3) =     -9.43725  eV     1   --> A              
     e(  4 -  4) =     -9.42276  eV     1   --> A              
     e(  5 -  5) =     -1.97683  eV     1   --> A              
     e(  6 -  6) =     -1.88390  eV     1   --> A              
     e(  7 -  7) =     -0.72392  eV     1   --> A              
     e(  8 -  8) =     -0.65787  eV     1   --> A              
     e(  9 -  9) =     -0.25155  eV     1   --> A              
     e( 10 - 10) =     -0.23483  eV     1   --> A              
     e( 11 - 11) =     -0.04001  eV     1   --> A              
     e( 12 - 12) =      0.33704  eV     1   --> A              
     e( 13 - 13) =      2.62941  eV     1   --> A              
     e( 14 - 14) =      2.86250  eV     1   --> A              
     e( 15 - 15) =      3.02731  eV     1   --> A              
     e( 16 - 16) =      3.23915  eV     1   --> A              
     e( 17 - 17) =      3.82689  eV     1   --> A              
     e( 18 - 18) =      3.84311  eV     1   --> A              
     e( 19 - 19) =      6.18979  eV     1   --> A              
     e( 20 - 20) =      6.75755  eV     1   --> A              
     e( 21 - 21) =      9.27872  eV     1   --> A              
     e( 22 - 22) =     10.34545  eV     1   --> A              
     e( 23 - 23) =     10.62703  eV     1   --> A              
     e( 24 - 24) =     10.79365  eV     1   --> A              
     e( 25 - 25) =     11.41127  eV     1   --> A              
     e( 26 - 26) =     11.43982  eV     1   --> A              
     e( 27 - 27) =     11.69974  eV     1   --> A              
     e( 28 - 28) =     11.87055  eV     1   --> A              
     e( 29 - 29) =     12.00100  eV     1   --> A              
     e( 30 - 30) =     12.10119  eV     1   --> A              
     e( 31 - 31) =     12.23358  eV     1   --> A              
     e( 32 - 32) =     13.14415  eV     1   --> A              
     e( 33 - 33) =     13.62642  eV     1   --> A              
     e( 34 - 34) =     13.65370  eV     1   --> A              
     e( 35 - 35) =     13.92669  eV     1   --> A              
     e( 36 - 36) =     14.14592  eV     1   --> A              
     e( 37 - 37) =     14.64268  eV     1   --> A              
     e( 38 - 38) =     14.92202  eV     1   --> A              
     e( 39 - 39) =     16.10614  eV     1   --> A              
     e( 40 - 40) =     16.12043  eV     1   --> A              
     e( 41 - 41) =     16.62998  eV     1   --> A              
     e( 42 - 42) =     16.98640  eV     1   --> A              
     e( 43 - 43) =     17.31159  eV     1   --> A              
     e( 44 - 44) =     17.76672  eV     1   --> A              
     e( 45 - 45) =     18.83883  eV     1   --> A              
     e( 46 - 46) =     18.85748  eV     1   --> A              
     e( 47 - 47) =     19.12126  eV     1   --> A              
     e( 48 - 48) =     19.39728  eV     1   --> A              
     e( 49 - 49) =     19.53067  eV     1   --> A              
     e( 50 - 50) =     19.77792  eV     1   --> A              
     e( 51 - 51) =     20.42709  eV     1   --> A              
     e( 52 - 52) =     20.72813  eV     1   --> A              
     e( 53 - 53) =     20.93667  eV     1   --> A              
     e( 54 - 54) =     21.15110  eV     1   --> A              
     e( 55 - 55) =     21.22079  eV     1   --> A              
     e( 56 - 56) =     21.60781  eV     1   --> A              
     e( 57 - 57) =     21.85914  eV     1   --> A              
     e( 58 - 58) =     22.39499  eV     1   --> A              
     e( 59 - 59) =     22.81399  eV     1   --> A              
     e( 60 - 60) =     22.95906  eV     1   --> A              
     e( 61 - 61) =     23.14107  eV     1   --> A              
     e( 62 - 62) =     23.39888  eV     1   --> A              
     e( 63 - 63) =     23.51368  eV     1   --> A              
     e( 64 - 64) =     23.86656  eV     1   --> A              
     e( 65 - 65) =     23.99675  eV     1   --> A              
     e( 66 - 66) =     24.71464  eV     1   --> A              
     e( 67 - 67) =     25.45227  eV     1   --> A              
     e( 68 - 68) =     25.57378  eV     1   --> A              
     e( 69 - 69) =     25.85026  eV     1   --> A              
     e( 70 - 70) =     25.92816  eV     1   --> A              
     e( 71 - 71) =     26.73017  eV     1   --> A              
     e( 72 - 72) =     26.91113  eV     1   --> A              

 **************************************************************************

 **************************************************************************

                    xk=(   0.15396,  -0.08890,  -0.00001  )

     Band symmetry, C_1 (1)     point group:

     e(  1 -  1) =    -15.11576  eV     1   --> A              
     e(  2 -  2) =    -15.10113  eV     1   --> A              
     e(  3 -  3) =     -9.36735  eV     1   --> A              
     e(  4 -  4) =     -9.35288  eV     1   --> A              
     e(  5 -  5) =     -1.94141  eV     1   --> A              
     e(  6 -  6) =     -1.86290  eV     1   --> A              
     e(  7 -  7) =     -0.83660  eV     1   --> A              
     e(  8 -  8) =     -0.75383  eV     1   --> A              
     e(  9 -  9) =     -0.28606  eV     1   --> A              
     e( 10 - 10) =     -0.26936  eV     1   --> A              
     e( 11 - 11) =      0.01052  eV     1   --> A              
     e( 12 - 12) =      0.38086  eV     1   --> A              
     e( 13 - 13) =      2.51580  eV     1   --> A              
     e( 14 - 14) =      2.59110  eV     1   --> A              
     e( 15 - 15) =      2.93338  eV     1   --> A              
     e( 16 - 16) =      3.27989  eV     1   --> A              
     e( 17 - 17) =      3.70775  eV     1   --> A              
     e( 18 - 18) =      3.72396  eV     1   --> A              
     e( 19 - 19) =      6.35160  eV     1   --> A              
     e( 20 - 20) =      6.90431  eV     1   --> A              
     e( 21 - 21) =      9.27637  eV     1   --> A              
     e( 22 - 22) =     10.14506  eV     1   --> A              
     e( 23 - 23) =     10.40056  eV     1   --> A              
     e( 24 - 24) =     10.70453  eV     1   --> A              
     e( 25 - 25) =     11.44726  eV     1   --> A              
     e( 26 - 26) =     11.54355  eV     1   --> A              
     e( 27 - 27) =     11.67839  eV     1   --> A              
     e( 28 - 28) =     11.70832  eV     1   --> A              
     e( 29 - 29) =     11.92753  eV     1   --> A              
     e( 30 - 30) =     11.94290  eV     1   --> A              
     e( 31 - 31) =     12.19617  eV     1   --> A              
     e( 32 - 32) =     13.16372  eV     1   --> A              
     e( 33 - 33) =     13.72355  eV     1   --> A              
     e( 34 - 34) =     13.77058  eV     1   --> A              
     e( 35 - 35) =     13.86883  eV     1   --> A              
     e( 36 - 36) =     14.08387  eV     1   --> A              
     e( 37 - 37) =     14.63221  eV     1   --> A              
     e( 38 - 38) =     15.00859  eV     1   --> A              
     e( 39 - 39) =     16.01831  eV     1   --> A              
     e( 40 - 40) =     16.17826  eV     1   --> A              
     e( 41 - 41) =     16.57895  eV     1   --> A              
     e( 42 - 42) =     16.85272  eV     1   --> A              
     e( 43 - 43) =     17.21612  eV     1   --> A              
     e( 44 - 44) =     17.84021  eV     1   --> A              
     e( 45 - 45) =     18.77559  eV     1   --> A              
     e( 46 - 46) =     18.88073  eV     1   --> A              
     e( 47 - 47) =     19.19079  eV     1   --> A              
     e( 48 - 48) =     19.38287  eV     1   --> A              
     e( 49 - 49) =     19.72789  eV     1   --> A              
     e( 50 - 50) =     19.91029  eV     1   --> A              
     e( 51 - 51) =     20.45790  eV     1   --> A              
     e( 52 - 52) =     20.91168  eV     1   --> A              
     e( 53 - 53) =     21.10983  eV     1   --> A              
     e( 54 - 54) =     21.32366  eV     1   --> A              
     e( 55 - 55) =     21.47874  eV     1   --> A              
     e( 56 - 56) =     21.70350  eV     1   --> A              
     e( 57 - 57) =     22.07557  eV     1   --> A              
     e( 58 - 58) =     22.37278  eV     1   --> A              
     e( 59 - 59) =     22.84846  eV     1   --> A              
     e( 60 - 60) =     22.96443  eV     1   --> A              
     e( 61 - 61) =     23.18476  eV     1   --> A              
     e( 62 - 62) =     23.30691  eV     1   --> A              
     e( 63 - 63) =     23.88183  eV     1   --> A              
     e( 64 - 64) =     23.91259  eV     1   --> A              
     e( 65 - 65) =     24.14712  eV     1   --> A              
     e( 66 - 66) =     24.66363  eV     1   --> A              
     e( 67 - 67) =     25.26325  eV     1   --> A              
     e( 68 - 68) =     25.55492  eV     1   --> A              
     e( 69 - 69) =     26.01145  eV     1   --> A              
     e( 70 - 70) =     26.06719  eV     1   --> A              
     e( 71 - 71) =     26.90931  eV     1   --> A              
     e( 72 - 72) =     26.98955  eV     1   --> A              

 **************************************************************************

 **************************************************************************

                    xk=(   0.17320,  -0.10002,  -0.00001  )

     Band symmetry, C_1 (1)     point group:

     e(  1 -  1) =    -15.08905  eV     1   --> A              
     e(  2 -  2) =    -15.07443  eV     1   --> A              
     e(  3 -  3) =     -9.28920  eV     1   --> A              
     e(  4 -  4) =     -9.27475  eV     1   --> A              
     e(  5 -  5) =     -1.91673  eV     1   --> A              
     e(  6 -  6) =     -1.85622  eV     1   --> A              
     e(  7 -  7) =     -0.93236  eV     1   --> A              
     e(  8 -  8) =     -0.82989  eV     1   --> A              
     e(  9 -  9) =     -0.32591  eV     1   --> A              
     e( 10 - 10) =     -0.30923  eV     1   --> A              
     e( 11 - 11) =      0.06584  eV     1   --> A              
     e( 12 - 12) =      0.42757  eV     1   --> A              
     e( 13 - 13) =      2.27203  eV     1   --> A              
     e( 14 - 14) =      2.30276  eV     1   --> A              
     e( 15 - 15) =      2.96720  eV     1   --> A              
     e( 16 - 16) =      3.33401  eV     1   --> A              
     e( 17 - 17) =      3.57284  eV     1   --> A              
     e( 18 - 18) =      3.58900  eV     1   --> A              
     e( 19 - 19) =      6.52642  eV     1   --> A              
     e( 20 - 20) =      7.05964  eV     1   --> A              
     e( 21 - 21) =      9.26242  eV     1   --> A              
     e( 22 - 22) =      9.92110  eV     1   --> A              
     e( 23 - 23) =     10.17508  eV     1   --> A              
     e( 24 - 24) =     10.60614  eV     1   --> A              
     e( 25 - 25) =     11.39029  eV     1   --> A              
     e( 26 - 26) =     11.49949  eV     1   --> A              
     e( 27 - 27) =     11.58831  eV     1   --> A              
     e( 28 - 28) =     11.60110  eV     1   --> A              
     e( 29 - 29) =     11.85624  eV     1   --> A              
     e( 30 - 30) =     11.94291  eV     1   --> A              
     e( 31 - 31) =     12.20874  eV     1   --> A              
     e( 32 - 32) =     13.16674  eV     1   --> A              
     e( 33 - 33) =     13.55789  eV     1   --> A              
     e( 34 - 34) =     13.66455  eV     1   --> A              
     e( 35 - 35) =     14.01516  eV     1   --> A              
     e( 36 - 36) =     14.29837  eV     1   --> A              
     e( 37 - 37) =     14.76637  eV     1   --> A              
     e( 38 - 38) =     15.14900  eV     1   --> A              
     e( 39 - 39) =     15.90266  eV     1   --> A              
     e( 40 - 40) =     16.20969  eV     1   --> A              
     e( 41 - 41) =     16.54752  eV     1   --> A              
     e( 42 - 42) =     16.70575  eV     1   --> A              
     e( 43 - 43) =     17.09672  eV     1   --> A              
     e( 44 - 44) =     17.87056  eV     1   --> A              
     e( 45 - 45) =     18.72856  eV     1   --> A              
     e( 46 - 46) =     18.91150  eV     1   --> A              
     e( 47 - 47) =     19.28847  eV     1   --> A              
     e( 48 - 48) =     19.36589  eV     1   --> A              
     e( 49 - 49) =     19.84403  eV     1   --> A              
     e( 50 - 50) =     20.02362  eV     1   --> A              
     e( 51 - 51) =     20.50675  eV     1   --> A              
     e( 52 - 52) =     20.78940  eV     1   --> A              
     e( 53 - 53) =     21.40994  eV     1   --> A              
     e( 54 - 54) =     21.50114  eV     1   --> A              
     e( 55 - 55) =     21.88765  eV     1   --> A              
     e( 56 - 56) =     21.93558  eV     1   --> A              
     e( 57 - 57) =     22.25511  eV     1   --> A              
     e( 58 - 58) =     22.31456  eV     1   --> A              
     e( 59 - 59) =     22.79043  eV     1   --> A              
     e( 60 - 60) =     23.01207  eV     1   --> A              
     e( 61 - 61) =     23.04953  eV     1   --> A              
     e( 62 - 62) =     23.63339  eV     1   --> A              
     e( 63 - 63) =     23.94594  eV     1   --> A              
     e( 64 - 64) =     24.25250  eV     1   --> A              
     e( 65 - 65) =     24.29027  eV     1   --> A              
     e( 66 - 66) =     24.57058  eV     1   --> A              
     e( 67 - 67) =     25.11226  eV     1   --> A              
     e( 68 - 68) =     25.53036  eV     1   --> A              
     e( 69 - 69) =     26.20377  eV     1   --> A              
     e( 70 - 70) =     26.32074  eV     1   --> A              
     e( 71 - 71) =     26.98879  eV     1   --> A              
     e( 72 - 72) =     27.06848  eV     1   --> A              

 **************************************************************************

 **************************************************************************

                    xk=(   0.19245,  -0.11113,  -0.00001  )

     Band symmetry, C_1 (1)     point group:

     e(  1 -  1) =    -15.06031  eV     1   --> A              
     e(  2 -  2) =    -15.04570  eV     1   --> A              
     e(  3 -  3) =     -9.20327  eV     1   --> A              
     e(  4 -  4) =     -9.18883  eV     1   --> A              
     e(  5 -  5) =     -1.91220  eV     1   --> A              
     e(  6 -  6) =     -1.87096  eV     1   --> A              
     e(  7 -  7) =     -0.99976  eV     1   --> A              
     e(  8 -  8) =     -0.87656  eV     1   --> A              
     e(  9 -  9) =     -0.37131  eV     1   --> A              
     e( 10 - 10) =     -0.35465  eV     1   --> A              
     e( 11 - 11) =      0.12482  eV     1   --> A              
     e( 12 - 12) =      0.47535  eV     1   --> A              
     e( 13 - 13) =      1.99599  eV     1   --> A              
     e( 14 - 14) =      2.01404  eV     1   --> A              
     e( 15 - 15) =      3.03557  eV     1   --> A              
     e( 16 - 16) =      3.38341  eV     1   --> A              
     e( 17 - 17) =      3.42606  eV     1   --> A              
     e( 18 - 18) =      3.44239  eV     1   --> A              
     e( 19 - 19) =      6.71238  eV     1   --> A              
     e( 20 - 20) =      7.22027  eV     1   --> A              
     e( 21 - 21) =      9.22790  eV     1   --> A              
     e( 22 - 22) =      9.68291  eV     1   --> A              
     e( 23 - 23) =      9.96247  eV     1   --> A              
     e( 24 - 24) =     10.49509  eV     1   --> A              
     e( 25 - 25) =     11.22763  eV     1   --> A              
     e( 26 - 26) =     11.27418  eV     1   --> A              
     e( 27 - 27) =     11.50676  eV     1   --> A              
     e( 28 - 28) =     11.55013  eV     1   --> A              
     e( 29 - 29) =     11.90080  eV     1   --> A              
     e( 30 - 30) =     12.01380  eV     1   --> A              
     e( 31 - 31) =     12.27326  eV     1   --> A              
     e( 32 - 32) =     13.14704  eV     1   --> A              
     e( 33 - 33) =     13.33632  eV     1   --> A              
     e( 34 - 34) =     13.50764  eV     1   --> A              
     e( 35 - 35) =     14.12339  eV     1   --> A              
     e( 36 - 36) =     14.56151  eV     1   --> A              
     e( 37 - 37) =     15.04972  eV     1   --> A              
     e( 38 - 38) =     15.36303  eV     1   --> A              
     e( 39 - 39) =     15.77033  eV     1   --> A              
     e( 40 - 40) =     16.20511  eV     1   --> A              
     e( 41 - 41) =     16.53532  eV     1   --> A              
     e( 42 - 42) =     16.56640  eV     1   --> A              
     e( 43 - 43) =     16.97167  eV     1   --> A              
     e( 44 - 44) =     17.88177  eV     1   --> A              
     e( 45 - 45) =     18.69590  eV     1   --> A              
     e( 46 - 46) =     18.94313  eV     1   --> A              
     e( 47 - 47) =     19.33413  eV     1   --> A              
     e( 48 - 48) =     19.36834  eV     1   --> A              
     e( 49 - 49) =     19.85620  eV     1   --> A              
     e( 50 - 50) =     20.13919  eV     1   --> A              
     e( 51 - 51) =     20.44350  eV     1   --> A              
     e( 52 - 52) =     20.89179  eV     1   --> A              
     e( 53 - 53) =     21.57185  eV     1   --> A              
     e( 54 - 54) =     21.67173  eV     1   --> A              
     e( 55 - 55) =     22.06617  eV     1   --> A              
     e( 56 - 56) =     22.25726  eV     1   --> A              
     e( 57 - 57) =     22.32350  eV     1   --> A              
     e( 58 - 58) =     22.58236  eV     1   --> A              
     e( 59 - 59) =     22.70481  eV     1   --> A              
     e( 60 - 60) =     23.00524  eV     1   --> A              
     e( 61 - 61) =     23.19073  eV     1   --> A              
     e( 62 - 62) =     23.96249  eV     1   --> A              
     e( 63 - 63) =     24.02967  eV     1   --> A              
     e( 64 - 64) =     24.16790  eV     1   --> A              
     e( 65 - 65) =     24.53677  eV     1   --> A              
     e( 66 - 66) =     24.68797  eV     1   --> A              
     e( 67 - 67) =     25.12483  eV     1   --> A              
     e( 68 - 68) =     25.50034  eV     1   --> A              
     e( 69 - 69) =     26.37013  eV     1   --> A              
     e( 70 - 70) =     26.63094  eV     1   --> A              
     e( 71 - 71) =     27.05953  eV     1   --> A              
     e( 72 - 72) =     27.08253  eV     1   --> A              

 **************************************************************************

 **************************************************************************

                    xk=(   0.21169,  -0.12224,  -0.00001  )

     Band symmetry, C_1 (1)     point group:

     e(  1 -  1) =    -15.02991  eV     1   --> A              
     e(  2 -  2) =    -15.01531  eV     1   --> A              
     e(  3 -  3) =     -9.11007  eV     1   --> A              
     e(  4 -  4) =     -9.09565  eV     1   --> A              
     e(  5 -  5) =     -1.93631  eV     1   --> A              
     e(  6 -  6) =     -1.91053  eV     1   --> A              
     e(  7 -  7) =     -1.02928  eV     1   --> A              
     e(  8 -  8) =     -0.88850  eV     1   --> A              
     e(  9 -  9) =     -0.42243  eV     1   --> A              
     e( 10 - 10) =     -0.40580  eV     1   --> A              
     e( 11 - 11) =      0.18562  eV     1   --> A              
     e( 12 - 12) =      0.52074  eV     1   --> A              
     e( 13 - 13) =      1.71851  eV     1   --> A              
     e( 14 - 14) =      1.73462  eV     1   --> A              
     e( 15 - 15) =      3.11118  eV     1   --> A              
     e( 16 - 16) =      3.25556  eV     1   --> A              
     e( 17 - 17) =      3.27249  eV     1   --> A              
     e( 18 - 18) =      3.45149  eV     1   --> A              
     e( 19 - 19) =      6.90768  eV     1   --> A              
     e( 20 - 20) =      7.38250  eV     1   --> A              
     e( 21 - 21) =      9.15711  eV     1   --> A              
     e( 22 - 22) =      9.43621  eV     1   --> A              
     e( 23 - 23) =      9.78020  eV     1   --> A              
     e( 24 - 24) =     10.36884  eV     1   --> A              
     e( 25 - 25) =     11.02726  eV     1   --> A              
     e( 26 - 26) =     11.04921  eV     1   --> A              
     e( 27 - 27) =     11.42626  eV     1   --> A              
     e( 28 - 28) =     11.46169  eV     1   --> A              
     e( 29 - 29) =     12.01052  eV     1   --> A              
     e( 30 - 30) =     12.11506  eV     1   --> A              
     e( 31 - 31) =     12.37492  eV     1   --> A              
     e( 32 - 32) =     13.08251  eV     1   --> A              
     e( 33 - 33) =     13.13771  eV     1   --> A              
     e( 34 - 34) =     13.33352  eV     1   --> A              
     e( 35 - 35) =     14.19571  eV     1   --> A              
     e( 36 - 36) =     14.77377  eV     1   --> A              
     e( 37 - 37) =     15.35514  eV     1   --> A              
     e( 38 - 38) =     15.65802  eV     1   --> A              
     e( 39 - 39) =     15.67668  eV     1   --> A              
     e( 40 - 40) =     16.17261  eV     1   --> A              
     e( 41 - 41) =     16.45743  eV     1   --> A              
     e( 42 - 42) =     16.53346  eV     1   --> A              
     e( 43 - 43) =     16.87204  eV     1   --> A              
     e( 44 - 44) =     17.89141  eV     1   --> A              
     e( 45 - 45) =     18.67449  eV     1   --> A              
     e( 46 - 46) =     18.97558  eV     1   --> A              
     e( 47 - 47) =     19.25740  eV     1   --> A              
     e( 48 - 48) =     19.40694  eV     1   --> A              
     e( 49 - 49) =     19.81475  eV     1   --> A              
     e( 50 - 50) =     20.25295  eV     1   --> A              
     e( 51 - 51) =     20.35743  eV     1   --> A              
     e( 52 - 52) =     21.12877  eV     1   --> A              
     e( 53 - 53) =     21.54901  eV     1   --> A              
     e( 54 - 54) =     21.89570  eV     1   --> A              
     e( 55 - 55) =     21.96794  eV     1   --> A              
     e( 56 - 56) =     22.40111  eV     1   --> A              
     e( 57 - 57) =     22.48737  eV     1   --> A              
     e( 58 - 58) =     22.91887  eV     1   --> A              
     e( 59 - 59) =     22.96063  eV     1   --> A              
     e( 60 - 60) =     23.11336  eV     1   --> A              
     e( 61 - 61) =     23.37056  eV     1   --> A              
     e( 62 - 62) =     23.94134  eV     1   --> A              
     e( 63 - 63) =     24.13097  eV     1   --> A              
     e( 64 - 64) =     24.34657  eV     1   --> A              
     e( 65 - 65) =     24.56258  eV     1   --> A              
     e( 66 - 66) =     24.93834  eV     1   --> A              
     e( 67 - 67) =     25.39881  eV     1   --> A              
     e( 68 - 68) =     25.46410  eV     1   --> A              
     e( 69 - 69) =     26.47936  eV     1   --> A              
     e( 70 - 70) =     26.93984  eV     1   --> A              
     e( 71 - 71) =     27.08377  eV     1   --> A              
     e( 72 - 72) =     27.16166  eV     1   --> A              

 **************************************************************************

 **************************************************************************

                    xk=(   0.23093,  -0.13335,  -0.00001  )

     Band symmetry, C_1 (1)     point group:

     e(  1 -  1) =    -14.99822  eV     1   --> A              
     e(  2 -  2) =    -14.98363  eV     1   --> A              
     e(  3 -  3) =     -9.01024  eV     1   --> A              
     e(  4 -  4) =     -8.99585  eV     1   --> A              
     e(  5 -  5) =     -1.99070  eV     1   --> A              
     e(  6 -  6) =     -1.97216  eV     1   --> A              
     e(  7 -  7) =     -1.01874  eV     1   --> A              
     e(  8 -  8) =     -0.86733  eV     1   --> A              
     e(  9 -  9) =     -0.47936  eV     1   --> A              
     e( 10 - 10) =     -0.46276  eV     1   --> A              
     e( 11 - 11) =      0.24495  eV     1   --> A              
     e( 12 - 12) =      0.55647  eV     1   --> A              
     e( 13 - 13) =      1.45166  eV     1   --> A              
     e( 14 - 14) =      1.47661  eV     1   --> A              
     e( 15 - 15) =      3.07532  eV     1   --> A              
     e( 16 - 16) =      3.09140  eV     1   --> A              
     e( 17 - 17) =      3.19613  eV     1   --> A              
     e( 18 - 18) =      3.50450  eV     1   --> A              
     e( 19 - 19) =      7.11063  eV     1   --> A              
     e( 20 - 20) =      7.54201  eV     1   --> A              
     e( 21 - 21) =      9.03335  eV     1   --> A              
     e( 22 - 22) =      9.18502  eV     1   --> A              
     e( 23 - 23) =      9.64648  eV     1   --> A              
     e( 24 - 24) =     10.22481  eV     1   --> A              
     e( 25 - 25) =     10.82778  eV     1   --> A              
     e( 26 - 26) =     10.83626  eV     1   --> A              
     e( 27 - 27) =     11.34908  eV     1   --> A              
     e( 28 - 28) =     11.38110  eV     1   --> A              
     e( 29 - 29) =     12.13877  eV     1   --> A              
     e( 30 - 30) =     12.23615  eV     1   --> A              
     e( 31 - 31) =     12.49856  eV     1   --> A              
     e( 32 - 32) =     12.88834  eV     1   --> A              
     e( 33 - 33) =     13.06390  eV     1   --> A              
     e( 34 - 34) =     13.15651  eV     1   --> A              
     e( 35 - 35) =     14.25021  eV     1   --> A              
     e( 36 - 36) =     14.91324  eV     1   --> A              
     e( 37 - 37) =     15.31302  eV     1   --> A              
     e( 38 - 38) =     15.90061  eV     1   --> A              
     e( 39 - 39) =     15.98464  eV     1   --> A              
     e( 40 - 40) =     16.12613  eV     1   --> A              
     e( 41 - 41) =     16.42264  eV     1   --> A              
     e( 42 - 42) =     16.53653  eV     1   --> A              
     e( 43 - 43) =     16.84892  eV     1   --> A              
     e( 44 - 44) =     17.90743  eV     1   --> A              
     e( 45 - 45) =     18.66075  eV     1   --> A              
     e( 46 - 46) =     19.00774  eV     1   --> A              
     e( 47 - 47) =     19.10756  eV     1   --> A              
     e( 48 - 48) =     19.41509  eV     1   --> A              
     e( 49 - 49) =     19.78950  eV     1   --> A              
     e( 50 - 50) =     20.33205  eV     1   --> A              
     e( 51 - 51) =     20.33222  eV     1   --> A              
     e( 52 - 52) =     21.37866  eV     1   --> A              
     e( 53 - 53) =     21.45060  eV     1   --> A              
     e( 54 - 54) =     21.82469  eV     1   --> A              
     e( 55 - 55) =     22.16673  eV     1   --> A              
     e( 56 - 56) =     22.35225  eV     1   --> A              
     e( 57 - 57) =     22.63581  eV     1   --> A              
     e( 58 - 58) =     23.16689  eV     1   --> A              
     e( 59 - 59) =     23.37262  eV     1   --> A              
     e( 60 - 60) =     23.43651  eV     1   --> A              
     e( 61 - 61) =     23.44064  eV     1   --> A              
     e( 62 - 62) =     23.95070  eV     1   --> A              
     e( 63 - 63) =     24.23921  eV     1   --> A              
     e( 64 - 64) =     24.56966  eV     1   --> A              
     e( 65 - 65) =     24.63521  eV     1   --> A              
     e( 66 - 66) =     25.20711  eV     1   --> A              
     e( 67 - 67) =     25.45158  eV     1   --> A              
     e( 68 - 68) =     25.75363  eV     1   --> A              
     e( 69 - 69) =     26.50939  eV     1   --> A              
     e( 70 - 70) =     27.07918  eV     1   --> A              
     e( 71 - 71) =     27.23512  eV     1   --> A              
     e( 72 - 72) =     27.26708  eV     1   --> A              

 **************************************************************************

 **************************************************************************

                    xk=(   0.25018,  -0.14447,  -0.00001  )

     Band symmetry, C_1 (1)     point group:

     e(  1 -  1) =    -14.96563  eV     1   --> A              
     e(  2 -  2) =    -14.95106  eV     1   --> A              
     e(  3 -  3) =     -8.90451  eV     1   --> A              
     e(  4 -  4) =     -8.89015  eV     1   --> A              
     e(  5 -  5) =     -2.06746  eV     1   --> A              
     e(  6 -  6) =     -2.05002  eV     1   --> A              
     e(  7 -  7) =     -0.97487  eV     1   --> A              
     e(  8 -  8) =     -0.82039  eV     1   --> A              
     e(  9 -  9) =     -0.54214  eV     1   --> A              
     e( 10 - 10) =     -0.52557  eV     1   --> A              
     e( 11 - 11) =      0.29596  eV     1   --> A              
     e( 12 - 12) =      0.56569  eV     1   --> A              
     e( 13 - 13) =      1.20793  eV     1   --> A              
     e( 14 - 14) =      1.26043  eV     1   --> A              
     e( 15 - 15) =      2.88700  eV     1   --> A              
     e( 16 - 16) =      2.90321  eV     1   --> A              
     e( 17 - 17) =      3.27116  eV     1   --> A              
     e( 18 - 18) =      3.55528  eV     1   --> A              
     e( 19 - 19) =      7.31960  eV     1   --> A              
     e( 20 - 20) =      7.69329  eV     1   --> A              
     e( 21 - 21) =      8.85884  eV     1   --> A              
     e( 22 - 22) =      8.93253  eV     1   --> A              
     e( 23 - 23) =      9.56105  eV     1   --> A              
     e( 24 - 24) =     10.06222  eV     1   --> A              
     e( 25 - 25) =     10.64316  eV     1   --> A              
     e( 26 - 26) =     10.64648  eV     1   --> A              
     e( 27 - 27) =     11.28002  eV     1   --> A              
     e( 28 - 28) =     11.31551  eV     1   --> A              
     e( 29 - 29) =     12.27266  eV     1   --> A              
     e( 30 - 30) =     12.37175  eV     1   --> A              
     e( 31 - 31) =     12.63267  eV     1   --> A              
     e( 32 - 32) =     12.69854  eV     1   --> A              
     e( 33 - 33) =     12.98685  eV     1   --> A              
     e( 34 - 34) =     12.99853  eV     1   --> A              
     e( 35 - 35) =     14.28930  eV     1   --> A              
     e( 36 - 36) =     14.98077  eV     1   --> A              
     e( 37 - 37) =     15.11197  eV     1   --> A              
     e( 38 - 38) =     16.06300  eV     1   --> A              
     e( 39 - 39) =     16.09150  eV     1   --> A              
     e( 40 - 40) =     16.19362  eV     1   --> A              
     e( 41 - 41) =     16.60401  eV     1   --> A              
     e( 42 - 42) =     16.60920  eV     1   --> A              
     e( 43 - 43) =     16.97325  eV     1   --> A              
     e( 44 - 44) =     17.93125  eV     1   --> A              
     e( 45 - 45) =     18.63845  eV     1   --> A              
     e( 46 - 46) =     18.91611  eV     1   --> A              
     e( 47 - 47) =     19.04072  eV     1   --> A              
     e( 48 - 48) =     19.41186  eV     1   --> A              
     e( 49 - 49) =     19.81192  eV     1   --> A              
     e( 50 - 50) =     20.34325  eV     1   --> A              
     e( 51 - 51) =     20.35803  eV     1   --> A              
     e( 52 - 52) =     21.35308  eV     1   --> A              
     e( 53 - 53) =     21.60730  eV     1   --> A              
     e( 54 - 54) =     21.67904  eV     1   --> A              
     e( 55 - 55) =     22.36998  eV     1   --> A              
     e( 56 - 56) =     22.39180  eV     1   --> A              
     e( 57 - 57) =     22.74706  eV     1   --> A              
     e( 58 - 58) =     23.29090  eV     1   --> A              
     e( 59 - 59) =     23.32116  eV     1   --> A              
     e( 60 - 60) =     23.72618  eV     1   --> A              
     e( 61 - 61) =     23.87937  eV     1   --> A              
     e( 62 - 62) =     24.25393  eV     1   --> A              
     e( 63 - 63) =     24.36390  eV     1   --> A              
     e( 64 - 64) =     24.67612  eV     1   --> A              
     e( 65 - 65) =     24.88840  eV     1   --> A              
     e( 66 - 66) =     25.26721  eV     1   --> A              
     e( 67 - 67) =     25.66535  eV     1   --> A              
     e( 68 - 68) =     26.07848  eV     1   --> A              
     e( 69 - 69) =     26.47764  eV     1   --> A              
     e( 70 - 70) =     27.11138  eV     1   --> A              
     e( 71 - 71) =     27.38739  eV     1   --> A              
     e( 72 - 72) =     27.44208  eV     1   --> A              

 **************************************************************************

 **************************************************************************

                    xk=(   0.26942,  -0.15558,  -0.00001  )

     Band symmetry, C_1 (1)     point group:

     e(  1 -  1) =    -14.93257  eV     1   --> A              
     e(  2 -  2) =    -14.91801  eV     1   --> A              
     e(  3 -  3) =     -8.79374  eV     1   --> A              
     e(  4 -  4) =     -8.77941  eV     1   --> A              
     e(  5 -  5) =     -2.15531  eV     1   --> A              
     e(  6 -  6) =     -2.13762  eV     1   --> A              
     e(  7 -  7) =     -0.90857  eV     1   --> A              
     e(  8 -  8) =     -0.75768  eV     1   --> A              
     e(  9 -  9) =     -0.61068  eV     1   --> A              
     e( 10 - 10) =     -0.59414  eV     1   --> A              
     e( 11 - 11) =      0.32336  eV     1   --> A              
     e( 12 - 12) =      0.51693  eV     1   --> A              
     e( 13 - 13) =      1.00831  eV     1   --> A              
     e( 14 - 14) =      1.12106  eV     1   --> A              
     e( 15 - 15) =      2.68786  eV     1   --> A              
     e( 16 - 16) =      2.70408  eV     1   --> A              
     e( 17 - 17) =      3.34522  eV     1   --> A              
     e( 18 - 18) =      3.60240  eV     1   --> A              
     e( 19 - 19) =      7.53284  eV     1   --> A              
     e( 20 - 20) =      7.82851  eV     1   --> A              
     e( 21 - 21) =      8.65491  eV     1   --> A              
     e( 22 - 22) =      8.68196  eV     1   --> A              
     e( 23 - 23) =      9.50617  eV     1   --> A              
     e( 24 - 24) =      9.88532  eV     1   --> A              
     e( 25 - 25) =     10.47955  eV     1   --> A              
     e( 26 - 26) =     10.48581  eV     1   --> A              
     e( 27 - 27) =     11.21990  eV     1   --> A              
     e( 28 - 28) =     11.26298  eV     1   --> A              
     e( 29 - 29) =     12.38444  eV     1   --> A              
     e( 30 - 30) =     12.51832  eV     1   --> A              
     e( 31 - 31) =     12.55267  eV     1   --> A              
     e( 32 - 32) =     12.76074  eV     1   --> A              
     e( 33 - 33) =     12.84896  eV     1   --> A              
     e( 34 - 34) =     12.93300  eV     1   --> A              
     e( 35 - 35) =     14.30787  eV     1   --> A              
     e( 36 - 36) =     14.89649  eV     1   --> A              
     e( 37 - 37) =     14.97389  eV     1   --> A              
     e( 38 - 38) =     16.01915  eV     1   --> A              
     e( 39 - 39) =     16.10305  eV     1   --> A              
     e( 40 - 40) =     16.21206  eV     1   --> A              
     e( 41 - 41) =     16.71514  eV     1   --> A              
     e( 42 - 42) =     16.99890  eV     1   --> A              
     e( 43 - 43) =     17.28769  eV     1   --> A              
     e( 44 - 44) =     17.95997  eV     1   --> A              
     e( 45 - 45) =     18.52767  eV     1   --> A              
     e( 46 - 46) =     18.81182  eV     1   --> A              
     e( 47 - 47) =     19.08179  eV     1   --> A              
     e( 48 - 48) =     19.40951  eV     1   --> A              
     e( 49 - 49) =     19.87728  eV     1   --> A              
     e( 50 - 50) =     20.28034  eV     1   --> A              
     e( 51 - 51) =     20.41730  eV     1   --> A              
     e( 52 - 52) =     21.30099  eV     1   --> A              
     e( 53 - 53) =     21.50984  eV     1   --> A              
     e( 54 - 54) =     21.80358  eV     1   --> A              
     e( 55 - 55) =     22.41955  eV     1   --> A              
     e( 56 - 56) =     22.59988  eV     1   --> A              
     e( 57 - 57) =     22.78704  eV     1   --> A              
     e( 58 - 58) =     23.21568  eV     1   --> A              
     e( 59 - 59) =     23.41328  eV     1   --> A              
     e( 60 - 60) =     23.99771  eV     1   --> A              
     e( 61 - 61) =     24.19483  eV     1   --> A              
     e( 62 - 62) =     24.59425  eV     1   --> A              
     e( 63 - 63) =     24.67531  eV     1   --> A              
     e( 64 - 64) =     24.89386  eV     1   --> A              
     e( 65 - 65) =     25.06256  eV     1   --> A              
     e( 66 - 66) =     25.28259  eV     1   --> A              
     e( 67 - 67) =     25.96728  eV     1   --> A              
     e( 68 - 68) =     26.29094  eV     1   --> A              
     e( 69 - 69) =     26.47630  eV     1   --> A              
     e( 70 - 70) =     27.15293  eV     1   --> A              
     e( 71 - 71) =     27.44536  eV     1   --> A              
     e( 72 - 72) =     27.50853  eV     1   --> A              

 **************************************************************************

 **************************************************************************

                    xk=(   0.28867,  -0.16669,  -0.00001  )

     Band symmetry, C_1 (1)     point group:

     e(  1 -  1) =    -14.89946  eV     1   --> A              
     e(  2 -  2) =    -14.88491  eV     1   --> A              
     e(  3 -  3) =     -8.67892  eV     1   --> A              
     e(  4 -  4) =     -8.66461  eV     1   --> A              
     e(  5 -  5) =     -2.24591  eV     1   --> A              
     e(  6 -  6) =     -2.22817  eV     1   --> A              
     e(  7 -  7) =     -0.83149  eV     1   --> A              
     e(  8 -  8) =     -0.69586  eV     1   --> A              
     e(  9 -  9) =     -0.68143  eV     1   --> A              
     e( 10 - 10) =     -0.66629  eV     1   --> A              
     e( 11 - 11) =      0.30044  eV     1   --> A              
     e( 12 - 12) =      0.39607  eV     1   --> A              
     e( 13 - 13) =      0.88669  eV     1   --> A              
     e( 14 - 14) =      1.07777  eV     1   --> A              
     e( 15 - 15) =      2.48069  eV     1   --> A              
     e( 16 - 16) =      2.49691  eV     1   --> A              
     e( 17 - 17) =      3.41505  eV     1   --> A              
     e( 18 - 18) =      3.64502  eV     1   --> A              
     e( 19 - 19) =      7.74803  eV     1   --> A              
     e( 20 - 20) =      7.93364  eV     1   --> A              
     e( 21 - 21) =      8.42976  eV     1   --> A              
     e( 22 - 22) =      8.45269  eV     1   --> A              
     e( 23 - 23) =      9.46817  eV     1   --> A              
     e( 24 - 24) =      9.70357  eV     1   --> A              
     e( 25 - 25) =     10.34044  eV     1   --> A              
     e( 26 - 26) =     10.35310  eV     1   --> A              
     e( 27 - 27) =     11.16649  eV     1   --> A              
     e( 28 - 28) =     11.21823  eV     1   --> A              
     e( 29 - 29) =     12.33715  eV     1   --> A              
     e( 30 - 30) =     12.58197  eV     1   --> A              
     e( 31 - 31) =     12.66178  eV     1   --> A              
     e( 32 - 32) =     12.70466  eV     1   --> A              
     e( 33 - 33) =     12.87960  eV     1   --> A              
     e( 34 - 34) =     12.93705  eV     1   --> A              
     e( 35 - 35) =     14.29116  eV     1   --> A              
     e( 36 - 36) =     14.70892  eV     1   --> A              
     e( 37 - 37) =     14.89467  eV     1   --> A              
     e( 38 - 38) =     15.97895  eV     1   --> A              
     e( 39 - 39) =     16.07436  eV     1   --> A              
     e( 40 - 40) =     16.19382  eV     1   --> A              
     e( 41 - 41) =     16.81255  eV     1   --> A              
     e( 42 - 42) =     17.40365  eV     1   --> A              
     e( 43 - 43) =     17.64275  eV     1   --> A              
     e( 44 - 44) =     17.98735  eV     1   --> A              
     e( 45 - 45) =     18.35683  eV     1   --> A              
     e( 46 - 46) =     18.84214  eV     1   --> A              
     e( 47 - 47) =     19.14403  eV     1   --> A              
     e( 48 - 48) =     19.41531  eV     1   --> A              
     e( 49 - 49) =     19.98108  eV     1   --> A              
     e( 50 - 50) =     20.17277  eV     1   --> A              
     e( 51 - 51) =     20.49758  eV     1   --> A              
     e( 52 - 52) =     21.28822  eV     1   --> A              
     e( 53 - 53) =     21.34673  eV     1   --> A              
     e( 54 - 54) =     21.96863  eV     1   --> A              
     e( 55 - 55) =     22.45097  eV     1   --> A              
     e( 56 - 56) =     22.71833  eV     1   --> A              
     e( 57 - 57) =     22.81038  eV     1   --> A              
     e( 58 - 58) =     23.20405  eV     1   --> A              
     e( 59 - 59) =     23.53775  eV     1   --> A              
[...]
     e( 71 - 71) =     26.39120  eV     1   --> A''            
     e( 72 - 72) =     26.63699  eV     1   --> A'             

 **************************************************************************

 **************************************************************************

                    xk=(   0.05773,   0.00000,  -0.00000  )

     Band symmetry, C_s (m)     point group:

     e(  1 -  1) =    -15.21283  eV     1   --> A'             
     e(  2 -  2) =    -15.19816  eV     1   --> A'             
     e(  3 -  3) =     -9.63869  eV     1   --> A'             
     e(  4 -  4) =     -9.62416  eV     1   --> A'             
     e(  5 -  5) =     -2.12394  eV     1   --> A'             
     e(  6 -  6) =     -2.00186  eV     1   --> A'             
     e(  7 -  7) =     -0.24862  eV     1   --> A'             
     e(  8 -  8) =     -0.23073  eV     1   --> A'             
     e(  9 -  9) =     -0.18635  eV     1   --> A'             
     e( 10 - 10) =     -0.15787  eV     1   --> A''            
     e( 11 - 11) =     -0.14107  eV     1   --> A''            
     e( 12 - 12) =      0.19846  eV     1   --> A'             
     e( 13 - 13) =      2.40700  eV     1   --> A'             
     e( 14 - 14) =      2.93992  eV     1   --> A'             
     e( 15 - 15) =      3.98574  eV     1   --> A'             
     e( 16 - 16) =      4.00255  eV     1   --> A'             
     e( 17 - 17) =      4.15875  eV     1   --> A''            
     e( 18 - 18) =      4.17498  eV     1   --> A''            
     e( 19 - 19) =      5.68190  eV     1   --> A'             
     e( 20 - 20) =      6.28671  eV     1   --> A'             
     e( 21 - 21) =      9.23792  eV     1   --> A'             
     e( 22 - 22) =     10.57408  eV     1   --> A'             
     e( 23 - 23) =     10.80194  eV     1   --> A'             
     e( 24 - 24) =     10.98473  eV     1   --> A'             
     e( 25 - 25) =     11.29891  eV     1   --> A'             
     e( 26 - 26) =     11.53004  eV     1   --> A'             
     e( 27 - 27) =     11.65497  eV     1   --> A'             
     e( 28 - 28) =     11.78178  eV     1   --> A''            
     e( 29 - 29) =     11.80259  eV     1   --> A''            
     e( 30 - 30) =     12.97574  eV     1   --> A'             
     e( 31 - 31) =     12.99092  eV     1   --> A'             
     e( 32 - 32) =     13.25489  eV     1   --> A''            
     e( 33 - 33) =     13.29145  eV     1   --> A''            
     e( 34 - 34) =     13.30031  eV     1   --> A'             
     e( 35 - 35) =     14.72671  eV     1   --> A'             
     e( 36 - 36) =     14.89097  eV     1   --> A'             
     e( 37 - 37) =     15.00337  eV     1   --> A''            
     e( 38 - 38) =     15.05945  eV     1   --> A''            
     e( 39 - 39) =     15.48289  eV     1   --> A'             
     e( 40 - 40) =     16.10899  eV     1   --> A'             
     e( 41 - 41) =     17.03390  eV     1   --> A'             
     e( 42 - 42) =     17.18579  eV     1   --> A'             
     e( 43 - 43) =     17.33871  eV     1   --> A''            
     e( 44 - 44) =     17.34904  eV     1   --> A''            
     e( 45 - 45) =     18.58636  eV     1   --> A'             
     e( 46 - 46) =     18.72354  eV     1   --> A'             
     e( 47 - 47) =     18.89873  eV     1   --> A'             
     e( 48 - 48) =     19.30838  eV     1   --> A'             
     e( 49 - 49) =     19.34750  eV     1   --> A'             
     e( 50 - 50) =     19.47015  eV     1   --> A''            
     e( 51 - 51) =     19.54859  eV     1   --> A'             
     e( 52 - 52) =     19.59488  eV     1   --> A''            
     e( 53 - 53) =     20.05107  eV     1   --> A'             
     e( 54 - 54) =     20.91191  eV     1   --> A'             
     e( 55 - 55) =     21.05819  eV     1   --> A'             
     e( 56 - 56) =     21.28772  eV     1   --> A'             
     e( 57 - 57) =     21.98263  eV     1   --> A'             
     e( 58 - 58) =     22.16830  eV     1   --> A''            
     e( 59 - 59) =     22.16987  eV     1   --> A'             
     e( 60 - 60) =     22.33837  eV     1   --> A''            
     e( 61 - 61) =     23.31141  eV     1   --> A'             
     e( 62 - 62) =     23.40787  eV     1   --> A'             
     e( 63 - 63) =     23.71961  eV     1   --> A''            
     e( 64 - 64) =     23.80253  eV     1   --> A'             
     e( 65 - 65) =     24.13197  eV     1   --> A''            
     e( 66 - 66) =     24.14324  eV     1   --> A'             
     e( 67 - 67) =     25.37240  eV     1   --> A'             
     e( 68 - 68) =     25.85033  eV     1   --> A'             
     e( 69 - 69) =     26.16650  eV     1   --> A'             
     e( 70 - 70) =     26.16763  eV     1   --> A''            
     e( 71 - 71) =     26.26808  eV     1   --> A''            
     e( 72 - 72) =     26.61543  eV     1   --> A'             

 **************************************************************************

 **************************************************************************

                    xk=(   0.03849,   0.00000,  -0.00000  )

     Band symmetry, C_s (m)     point group:

     e(  1 -  1) =    -15.21957  eV     1   --> A'             
     e(  2 -  2) =    -15.20490  eV     1   --> A'             
     e(  3 -  3) =     -9.65688  eV     1   --> A'             
     e(  4 -  4) =     -9.64234  eV     1   --> A'             
     e(  5 -  5) =     -2.13937  eV     1   --> A'             
     e(  6 -  6) =     -2.01543  eV     1   --> A'             
     e(  7 -  7) =     -0.21009  eV     1   --> A'             
     e(  8 -  8) =     -0.18919  eV     1   --> A'             
     e(  9 -  9) =     -0.17071  eV     1   --> A'             
     e( 10 - 10) =     -0.15008  eV     1   --> A''            
     e( 11 - 11) =     -0.13328  eV     1   --> A''            
     e( 12 - 12) =      0.18370  eV     1   --> A'             
     e( 13 - 13) =      2.37229  eV     1   --> A'             
     e( 14 - 14) =      2.91314  eV     1   --> A'             
     e( 15 - 15) =      4.10685  eV     1   --> A'             
     e( 16 - 16) =      4.12322  eV     1   --> A'             
     e( 17 - 17) =      4.18633  eV     1   --> A''            
     e( 18 - 18) =      4.20255  eV     1   --> A''            
     e( 19 - 19) =      5.63078  eV     1   --> A'             
     e( 20 - 20) =      6.23974  eV     1   --> A'             
     e( 21 - 21) =      9.22919  eV     1   --> A'             
     e( 22 - 22) =     10.51786  eV     1   --> A'             
     e( 23 - 23) =     10.71519  eV     1   --> A'             
     e( 24 - 24) =     10.97606  eV     1   --> A'             
     e( 25 - 25) =     11.32000  eV     1   --> A'             
     e( 26 - 26) =     11.62338  eV     1   --> A'             
     e( 27 - 27) =     11.68275  eV     1   --> A'             
     e( 28 - 28) =     11.74011  eV     1   --> A''            
     e( 29 - 29) =     11.76092  eV     1   --> A''            
     e( 30 - 30) =     13.10315  eV     1   --> A'             
     e( 31 - 31) =     13.12531  eV     1   --> A'             
     e( 32 - 32) =     13.23443  eV     1   --> A''            
     e( 33 - 33) =     13.27019  eV     1   --> A''            
     e( 34 - 34) =     13.33940  eV     1   --> A'             
     e( 35 - 35) =     14.91912  eV     1   --> A'             
     e( 36 - 36) =     14.98852  eV     1   --> A'             
     e( 37 - 37) =     15.04222  eV     1   --> A''            
     e( 38 - 38) =     15.09129  eV     1   --> A''            
     e( 39 - 39) =     15.35932  eV     1   --> A'             
     e( 40 - 40) =     15.99250  eV     1   --> A'             
     e( 41 - 41) =     17.13766  eV     1   --> A'             
     e( 42 - 42) =     17.22703  eV     1   --> A'             
     e( 43 - 43) =     17.28456  eV     1   --> A''            
     e( 44 - 44) =     17.31243  eV     1   --> A''            
     e( 45 - 45) =     18.48775  eV     1   --> A'             
     e( 46 - 46) =     18.59573  eV     1   --> A'             
     e( 47 - 47) =     18.79462  eV     1   --> A'             
     e( 48 - 48) =     19.29086  eV     1   --> A'             
     e( 49 - 49) =     19.39102  eV     1   --> A'             
     e( 50 - 50) =     19.46013  eV     1   --> A''            
     e( 51 - 51) =     19.51850  eV     1   --> A'             
     e( 52 - 52) =     19.58472  eV     1   --> A''            
     e( 53 - 53) =     19.96077  eV     1   --> A'             
     e( 54 - 54) =     20.78602  eV     1   --> A'             
     e( 55 - 55) =     20.99772  eV     1   --> A'             
     e( 56 - 56) =     21.30450  eV     1   --> A'             
     e( 57 - 57) =     22.08590  eV     1   --> A''            
     e( 58 - 58) =     22.08694  eV     1   --> A'             
     e( 59 - 59) =     22.13386  eV     1   --> A'             
     e( 60 - 60) =     22.34188  eV     1   --> A''            
     e( 61 - 61) =     23.20721  eV     1   --> A'             
     e( 62 - 62) =     23.45317  eV     1   --> A'             
     e( 63 - 63) =     23.72542  eV     1   --> A''            
     e( 64 - 64) =     23.74774  eV     1   --> A'             
     e( 65 - 65) =     24.17305  eV     1   --> A''            
     e( 66 - 66) =     24.18352  eV     1   --> A'             
     e( 67 - 67) =     25.33038  eV     1   --> A'             
     e( 68 - 68) =     25.94851  eV     1   --> A'             
     e( 69 - 69) =     26.15801  eV     1   --> A''            
     e( 70 - 70) =     26.20254  eV     1   --> A'             
     e( 71 - 71) =     26.21994  eV     1   --> A''            
     e( 72 - 72) =     26.54505  eV     1   --> A'             

 **************************************************************************

 **************************************************************************

                    xk=(   0.01924,   0.00000,  -0.00000  )

     Band symmetry, C_s (m)     point group:

     e(  1 -  1) =    -15.22364  eV     1   --> A'             
     e(  2 -  2) =    -15.20897  eV     1   --> A'             
     e(  3 -  3) =     -9.66781  eV     1   --> A'             
     e(  4 -  4) =     -9.65328  eV     1   --> A'             
     e(  5 -  5) =     -2.14876  eV     1   --> A'             
     e(  6 -  6) =     -2.02376  eV     1   --> A'             
     e(  7 -  7) =     -0.21478  eV     1   --> A'             
     e(  8 -  8) =     -0.15573  eV     1   --> A'             
     e(  9 -  9) =     -0.14534  eV     1   --> A''            
     e( 10 - 10) =     -0.13893  eV     1   --> A'             
     e( 11 - 11) =     -0.12853  eV     1   --> A''            
     e( 12 - 12) =      0.17418  eV     1   --> A'             
     e( 13 - 13) =      2.35032  eV     1   --> A'             
     e( 14 - 14) =      2.89609  eV     1   --> A'             
     e( 15 - 15) =      4.18258  eV     1   --> A'             
     e( 16 - 16) =      4.19880  eV     1   --> A'             
     e( 17 - 17) =      4.20317  eV     1   --> A''            
     e( 18 - 18) =      4.21939  eV     1   --> A''            
     e( 19 - 19) =      5.59916  eV     1   --> A'             
     e( 20 - 20) =      6.21098  eV     1   --> A'             
     e( 21 - 21) =      9.22312  eV     1   --> A'             
     e( 22 - 22) =     10.47349  eV     1   --> A'             
     e( 23 - 23) =     10.65694  eV     1   --> A'             
     e( 24 - 24) =     10.97143  eV     1   --> A'             
     e( 25 - 25) =     11.33058  eV     1   --> A'             
     e( 26 - 26) =     11.68361  eV     1   --> A'             
     e( 27 - 27) =     11.71123  eV     1   --> A'             
     e( 28 - 28) =     11.71394  eV     1   --> A''            
     e( 29 - 29) =     11.73473  eV     1   --> A''            
     e( 30 - 30) =     13.18745  eV     1   --> A'             
     e( 31 - 31) =     13.21817  eV     1   --> A'             
     e( 32 - 32) =     13.22239  eV     1   --> A''            
     e( 33 - 33) =     13.25761  eV     1   --> A''            
     e( 34 - 34) =     13.36061  eV     1   --> A'             
     e( 35 - 35) =     15.05078  eV     1   --> A'             
     e( 36 - 36) =     15.06573  eV     1   --> A'             
     e( 37 - 37) =     15.06874  eV     1   --> A''            
     e( 38 - 38) =     15.11315  eV     1   --> A''            
     e( 39 - 39) =     15.27266  eV     1   --> A'             
     e( 40 - 40) =     15.88838  eV     1   --> A'             
     e( 41 - 41) =     17.20749  eV     1   --> A'             
     e( 42 - 42) =     17.24721  eV     1   --> A''            
     e( 43 - 43) =     17.26317  eV     1   --> A'             
     e( 44 - 44) =     17.28766  eV     1   --> A''            
     e( 45 - 45) =     18.42139  eV     1   --> A'             
     e( 46 - 46) =     18.49883  eV     1   --> A'             
     e( 47 - 47) =     18.72946  eV     1   --> A'             
     e( 48 - 48) =     19.21812  eV     1   --> A'             
     e( 49 - 49) =     19.43798  eV     1   --> A'             
     e( 50 - 50) =     19.45749  eV     1   --> A''            
     e( 51 - 51) =     19.56039  eV     1   --> A'             
     e( 52 - 52) =     19.58096  eV     1   --> A''            
     e( 53 - 53) =     19.90281  eV     1   --> A'             
     e( 54 - 54) =     20.70198  eV     1   --> A'             
     e( 55 - 55) =     20.92896  eV     1   --> A'             
     e( 56 - 56) =     21.34678  eV     1   --> A'             
     e( 57 - 57) =     22.03346  eV     1   --> A'             
     e( 58 - 58) =     22.03375  eV     1   --> A''            
     e( 59 - 59) =     22.27228  eV     1   --> A'             
     e( 60 - 60) =     22.33934  eV     1   --> A''            
     e( 61 - 61) =     23.07358  eV     1   --> A'             
     e( 62 - 62) =     23.48129  eV     1   --> A'             
     e( 63 - 63) =     23.73721  eV     1   --> A''            
     e( 64 - 64) =     23.74079  eV     1   --> A'             
     e( 65 - 65) =     24.19971  eV     1   --> A''            
     e( 66 - 66) =     24.20248  eV     1   --> A'             
     e( 67 - 67) =     25.30249  eV     1   --> A'             
     e( 68 - 68) =     26.02803  eV     1   --> A'             
     e( 69 - 69) =     26.08658  eV     1   --> A''            
     e( 70 - 70) =     26.24128  eV     1   --> A'             
     e( 71 - 71) =     26.24961  eV     1   --> A''            
     e( 72 - 72) =     26.49336  eV     1   --> A'             

 **************************************************************************

 **************************************************************************

                    xk=(   0.00000,   0.00000,   0.00000  )

     Band symmetry, C_s (m)     point group:

     e(  1 -  1) =    -15.22500  eV     1   --> A'             
     e(  2 -  2) =    -15.21033  eV     1   --> A'             
     e(  3 -  3) =     -9.67146  eV     1   --> A'             
     e(  4 -  4) =     -9.65692  eV     1   --> A'             
     e(  5 -  5) =     -2.15192  eV     1   --> A'             
     e(  6 -  6) =     -2.02657  eV     1   --> A'             
     e(  7 -  7) =     -0.21712  eV     1   --> A'             
     e(  8 -  8) =     -0.14416  eV     1   --> A'             
     e(  9 -  9) =     -0.14376  eV     1   --> A''            
     e( 10 - 10) =     -0.12735  eV     1   --> A'             
     e( 11 - 11) =     -0.12695  eV     1   --> A''            
     e( 12 - 12) =      0.17084  eV     1   --> A'             
     e( 13 - 13) =      2.34280  eV     1   --> A'             
     e( 14 - 14) =      2.89024  eV     1   --> A'             
     e( 15 - 15) =      4.20837  eV     1   --> A'             
     e( 16 - 16) =      4.20884  eV     1   --> A''            
     e( 17 - 17) =      4.22458  eV     1   --> A'             
     e( 18 - 18) =      4.22505  eV     1   --> A''            
     e( 19 - 19) =      5.58843  eV     1   --> A'             
     e( 20 - 20) =      6.20129  eV     1   --> A'             
     e( 21 - 21) =      9.22093  eV     1   --> A'             
     e( 22 - 22) =     10.45705  eV     1   --> A'             
     e( 23 - 23) =     10.63663  eV     1   --> A'             
     e( 24 - 24) =     10.97004  eV     1   --> A'             
     e( 25 - 25) =     11.33356  eV     1   --> A'             
     e( 26 - 26) =     11.70313  eV     1   --> A'             
     e( 27 - 27) =     11.70502  eV     1   --> A''            
     e( 28 - 28) =     11.72391  eV     1   --> A'             
     e( 29 - 29) =     11.72581  eV     1   --> A''            
     e( 30 - 30) =     13.21705  eV     1   --> A'             
     e( 31 - 31) =     13.21840  eV     1   --> A''            
     e( 32 - 32) =     13.25208  eV     1   --> A'             
     e( 33 - 33) =     13.25344  eV     1   --> A''            
     e( 34 - 34) =     13.36679  eV     1   --> A'             
     e( 35 - 35) =     15.07680  eV     1   --> A'             
     e( 36 - 36) =     15.07817  eV     1   --> A''            
     e( 37 - 37) =     15.11960  eV     1   --> A'             
     e( 38 - 38) =     15.12094  eV     1   --> A''            
     e( 39 - 39) =     15.24076  eV     1   --> A'             
     e( 40 - 40) =     15.84439  eV     1   --> A'             
     e( 41 - 41) =     17.23222  eV     1   --> A'             
     e( 42 - 42) =     17.23401  eV     1   --> A''            
     e( 43 - 43) =     17.27686  eV     1   --> A'             
     e( 44 - 44) =     17.27876  eV     1   --> A''            
     e( 45 - 45) =     18.39719  eV     1   --> A'             
     e( 46 - 46) =     18.46499  eV     1   --> A'             
     e( 47 - 47) =     18.70718  eV     1   --> A'             
     e( 48 - 48) =     19.18838  eV     1   --> A'             
     e( 49 - 49) =     19.45637  eV     1   --> A'             
     e( 50 - 50) =     19.45722  eV     1   --> A''            
     e( 51 - 51) =     19.57917  eV     1   --> A'             
     e( 52 - 52) =     19.58012  eV     1   --> A''            
     e( 53 - 53) =     19.88297  eV     1   --> A'             
     e( 54 - 54) =     20.67259  eV     1   --> A'             
     e( 55 - 55) =     20.90232  eV     1   --> A'             
     e( 56 - 56) =     21.36499  eV     1   --> A'             
     e( 57 - 57) =     22.01397  eV     1   --> A'             
     e( 58 - 58) =     22.01589  eV     1   --> A''            
     e( 59 - 59) =     22.33536  eV     1   --> A'             
     e( 60 - 60) =     22.33764  eV     1   --> A''            
     e( 61 - 61) =     23.00907  eV     1   --> A'             
     e( 62 - 62) =     23.49082  eV     1   --> A'             
     e( 63 - 63) =     23.74209  eV     1   --> A'             
     e( 64 - 64) =     23.74271  eV     1   --> A''            
     e( 65 - 65) =     24.20775  eV     1   --> A'             
     e( 66 - 66) =     24.20895  eV     1   --> A''            
     e( 67 - 67) =     25.29286  eV     1   --> A'             
     e( 68 - 68) =     26.05901  eV     1   --> A'             
     e( 69 - 69) =     26.06111  eV     1   --> A''            
     e( 70 - 70) =     26.25739  eV     1   --> A'             
     e( 71 - 71) =     26.25988  eV     1   --> A''            
     e( 72 - 72) =     26.47454  eV     1   --> A'             

 **************************************************************************
 
     BANDS        :      8.24s CPU     13.55s WALL

 
   This run was terminated on:  12:10:38   7Mar2023            

=------------------------------------------------------------------------------=
   JOB DONE.
=------------------------------------------------------------------------------=
