
     Program PWSCF v.7.1 starts on  7Mar2023 at 12: 5:56 

     This program is part of the open-source Quantum ESPRESSO suite
     for quantum simulation of materials; please cite
         "P. Giannozzi et al., J. Phys.:Condens. Matter 21 395502 (2009);
         "P. Giannozzi et al., J. Phys.:Condens. Matter 29 465901 (2017);
         "P. Giannozzi et al., J. Chem. Phys. 152 154105 (2020);
          URL http://www.quantum-espresso.org", 
     in publications or presentations arising from this work. More details at
     http://www.quantum-espresso.org/quote

     Parallel version (MPI), running on    22 processors

     MPI processes distributed on     1 nodes
     98683 MiB available memory on the printing compute node when the environment starts
 
     Waiting for input...
     Reading input from standard input

     Current dimensions of program PWSCF are:
     Max number of different atomic species (ntypx) = 10
     Max number of k-points (npk) =  40000
     Max angular momentum in pseudopotentials (lmaxx) =  4
     Message from routine volume:
     axis vectors are left-handed

     Atomic positions and unit cell read from directory:
     ./work/Al2SO.save/
     Atomic positions from file used, from input discarded
 
     Message from routine volume:
     axis vectors are left-handed
     file Al.pbe-n-kjpaw_psl.1.0.0.UPF: wavefunction(s)  3S 3P renormalized
     file O.pbe-n-kjpaw_psl.1.0.0.UPF: wavefunction(s)  2S 2P renormalized
     file S.pbe-n-kjpaw_psl.1.0.0.UPF: wavefunction(s)  3S 3P renormalized
     Message from routine setup:
     using ibrav=0 with symmetry is DISCOURAGED, use correct ibrav instead
 
     R & G space division:  proc/nbgrp/npool/nimage =      22
     Subspace diagonalization in iterative solution of the eigenvalue problem:
     a serial algorithm will be used

 
     Parallelization info
     --------------------
     sticks:   dense  smooth     PW     G-vecs:    dense   smooth      PW
     Min          28      28      8                 2898     2898     458
     Max          29      29      9                 2910     2910     473
     Sum         625     625    187                63851    63851   10325
 
     Using Slab Decomposition
 


     bravais-lattice index     =            0
     lattice parameter (alat)  =       6.1332  a.u.
     unit-cell volume          =    1018.0664 (a.u.)^3
     number of atoms/cell      =            8
     number of atomic types    =            3
     number of electrons       =        36.00
     number of Kohn-Sham states=           72
     kinetic-energy cutoff     =      60.0000  Ry
     charge density cutoff     =     240.0000  Ry
     Exchange-correlation= SLA  PW   PBX  PBC
                           (   1   4   3   4   0   0   0)

     celldm(1)=   6.133220  celldm(2)=   0.000000  celldm(3)=   0.000000
     celldm(4)=   0.000000  celldm(5)=   0.000000  celldm(6)=   0.000000

     crystal axes: (cart. coord. in units of alat)
               a(1) = (   0.866047   0.499963   0.000031 )  
               a(2) = (   0.866047  -0.499963   0.000031 )  
               a(3) = (   0.000178   0.000000   5.095670 )  

     reciprocal axes: (cart. coord. in units 2 pi/alat)
               b(1) = (  0.577336  1.000074 -0.000020 )  
               b(2) = (  0.577336 -1.000074 -0.000020 )  
               b(3) = ( -0.000007  0.000000  0.196245 )  


     PseudoPot. # 1 for Al read from file:
     /home/mainadmin/research/danu/pseudo/Al.pbe-n-kjpaw_psl.1.0.0.UPF
     MD5 check sum: 502b6b27b9c6270cab5dd1084b96fa6d
     Pseudo is Projector augmented-wave + core cor, Zval =  3.0
     Generated using &quot;atomic&quot; code by A. Dal Corso  v.6.3
     Shape of augmentation charge: PSQ
     Using radial grid of 1135 points,  6 beta functions with: 
                l(1) =   0
                l(2) =   0
                l(3) =   1
                l(4) =   1
                l(5) =   2
                l(6) =   2
     Q(r) pseudized with 0 coefficients 


     PseudoPot. # 2 for O  read from file:
     /home/mainadmin/research/danu/pseudo/O.pbe-n-kjpaw_psl.1.0.0.UPF
     MD5 check sum: e99d9cef9b487d1ca56f5b95ecd0fd7a
     Pseudo is Projector augmented-wave + core cor, Zval =  6.0
     Generated using &quot;atomic&quot; code by A. Dal Corso  v.6.3
     Shape of augmentation charge: PSQ
     Using radial grid of 1095 points,  4 beta functions with: 
                l(1) =   0
                l(2) =   0
                l(3) =   1
                l(4) =   1
     Q(r) pseudized with 0 coefficients 


     PseudoPot. # 3 for S  read from file:
     /home/mainadmin/research/danu/pseudo/S.pbe-n-kjpaw_psl.1.0.0.UPF
     MD5 check sum: fb45dfebcf3e72a4e1bd4a866ec2e262
     Pseudo is Projector augmented-wave + core cor, Zval =  6.0
     Generated using &quot;atomic&quot; code by A. Dal Corso  v.6.3
     Shape of augmentation charge: PSQ
     Using radial grid of 1151 points,  6 beta functions with: 
                l(1) =   0
                l(2) =   0
                l(3) =   1
                l(4) =   1
                l(5) =   2
                l(6) =   2
     Q(r) pseudized with 0 coefficients 


     atomic species   valence    mass     pseudopotential
        Al             3.00    26.98100     Al( 1.00)
        O              6.00    15.99900     O ( 1.00)
        S              6.00    32.06500     S ( 1.00)

      2 Sym. Ops. (no inversion) found



   Cartesian axes

     site n.     atom                  positions (alat units)
         1           O   tau(   1) = (   1.1547291   0.0000000   0.0000407  )
         2           Al  tau(   2) = (   0.5773698   0.0000000   0.1593190  )
         3           Al  tau(   3) = (   0.5773982   0.0000000   0.9664330  )
         4           S   tau(   4) = (   1.1547762   0.0000000   1.3471932  )
         5           O   tau(   5) = (   1.1548186   0.0000000   2.5574739  )
         6           Al  tau(   6) = (   0.5774595   0.0000000   2.7158078  )
         7           Al  tau(   7) = (   0.5774876   0.0000000   3.5202442  )
         8           S   tau(   8) = (   1.1548655   0.0000000   3.9003446  )

     number of k points=    91
                       cart. coord. in units 2pi/alat
        k(    1) = (   0.0000000   0.0000000   0.0000000), wk =   0.0219780
        k(    2) = (   0.0192445  -0.0111128  -0.0000007), wk =   0.0219780
        k(    3) = (   0.0384891  -0.0222256  -0.0000013), wk =   0.0219780
        k(    4) = (   0.0577336  -0.0333385  -0.0000020), wk =   0.0219780
        k(    5) = (   0.0769781  -0.0444513  -0.0000027), wk =   0.0219780
        k(    6) = (   0.0962227  -0.0555641  -0.0000034), wk =   0.0219780
        k(    7) = (   0.1154672  -0.0666769  -0.0000040), wk =   0.0219780
        k(    8) = (   0.1347117  -0.0777898  -0.0000047), wk =   0.0219780
        k(    9) = (   0.1539563  -0.0889026  -0.0000054), wk =   0.0219780
        k(   10) = (   0.1732008  -0.1000154  -0.0000061), wk =   0.0219780
        k(   11) = (   0.1924453  -0.1111282  -0.0000067), wk =   0.0219780
        k(   12) = (   0.2116899  -0.1222411  -0.0000074), wk =   0.0219780
        k(   13) = (   0.2309344  -0.1333539  -0.0000081), wk =   0.0219780
        k(   14) = (   0.2501789  -0.1444667  -0.0000088), wk =   0.0219780
        k(   15) = (   0.2694235  -0.1555795  -0.0000094), wk =   0.0219780
        k(   16) = (   0.2886680  -0.1666923  -0.0000101), wk =   0.0219780
        k(   17) = (   0.3079125  -0.1778052  -0.0000108), wk =   0.0219780
        k(   18) = (   0.3271571  -0.1889180  -0.0000114), wk =   0.0219780
        k(   19) = (   0.3464016  -0.2000308  -0.0000121), wk =   0.0219780
        k(   20) = (   0.3656461  -0.2111436  -0.0000128), wk =   0.0219780
        k(   21) = (   0.3848907  -0.2222565  -0.0000135), wk =   0.0219780
        k(   22) = (   0.4041352  -0.2333693  -0.0000141), wk =   0.0219780
        k(   23) = (   0.4233797  -0.2444821  -0.0000148), wk =   0.0219780
        k(   24) = (   0.4426243  -0.2555949  -0.0000155), wk =   0.0219780
        k(   25) = (   0.4618688  -0.2667078  -0.0000162), wk =   0.0219780
        k(   26) = (   0.4811133  -0.2778206  -0.0000168), wk =   0.0219780
        k(   27) = (   0.5003579  -0.2889334  -0.0000175), wk =   0.0219780
        k(   28) = (   0.5196024  -0.3000462  -0.0000182), wk =   0.0219780
        k(   29) = (   0.5388469  -0.3111591  -0.0000189), wk =   0.0219780
        k(   30) = (   0.5580915  -0.3222719  -0.0000195), wk =   0.0219780
        k(   31) = (   0.5773360  -0.3333847  -0.0000202), wk =   0.0219780
        k(   32) = (   0.5773360  -0.3222719  -0.0000202), wk =   0.0219780
        k(   33) = (   0.5773360  -0.3111591  -0.0000202), wk =   0.0219780
        k(   34) = (   0.5773360  -0.3000462  -0.0000202), wk =   0.0219780
        k(   35) = (   0.5773360  -0.2889334  -0.0000202), wk =   0.0219780
        k(   36) = (   0.5773360  -0.2778206  -0.0000202), wk =   0.0219780
        k(   37) = (   0.5773360  -0.2667078  -0.0000202), wk =   0.0219780
        k(   38) = (   0.5773360  -0.2555949  -0.0000202), wk =   0.0219780
        k(   39) = (   0.5773360  -0.2444821  -0.0000202), wk =   0.0219780
        k(   40) = (   0.5773360  -0.2333693  -0.0000202), wk =   0.0219780
        k(   41) = (   0.5773360  -0.2222565  -0.0000202), wk =   0.0219780
        k(   42) = (   0.5773360  -0.2111436  -0.0000202), wk =   0.0219780
        k(   43) = (   0.5773360  -0.2000308  -0.0000202), wk =   0.0219780
        k(   44) = (   0.5773360  -0.1889180  -0.0000202), wk =   0.0219780
        k(   45) = (   0.5773360  -0.1778052  -0.0000202), wk =   0.0219780
        k(   46) = (   0.5773360  -0.1666923  -0.0000202), wk =   0.0219780
        k(   47) = (   0.5773360  -0.1555795  -0.0000202), wk =   0.0219780
        k(   48) = (   0.5773360  -0.1444667  -0.0000202), wk =   0.0219780
        k(   49) = (   0.5773360  -0.1333539  -0.0000202), wk =   0.0219780
        k(   50) = (   0.5773360  -0.1222411  -0.0000202), wk =   0.0219780
        k(   51) = (   0.5773360  -0.1111282  -0.0000202), wk =   0.0219780
        k(   52) = (   0.5773360  -0.1000154  -0.0000202), wk =   0.0219780
        k(   53) = (   0.5773360  -0.0889026  -0.0000202), wk =   0.0219780
        k(   54) = (   0.5773360  -0.0777898  -0.0000202), wk =   0.0219780
        k(   55) = (   0.5773360  -0.0666769  -0.0000202), wk =   0.0219780
        k(   56) = (   0.5773360  -0.0555641  -0.0000202), wk =   0.0219780
        k(   57) = (   0.5773360  -0.0444513  -0.0000202), wk =   0.0219780
        k(   58) = (   0.5773360  -0.0333385  -0.0000202), wk =   0.0219780
        k(   59) = (   0.5773360  -0.0222256  -0.0000202), wk =   0.0219780
        k(   60) = (   0.5773360  -0.0111128  -0.0000202), wk =   0.0219780
        k(   61) = (   0.5773360   0.0000000  -0.0000202), wk =   0.0219780
        k(   62) = (   0.5580915   0.0000000  -0.0000195), wk =   0.0219780
        k(   63) = (   0.5388469   0.0000000  -0.0000189), wk =   0.0219780
        k(   64) = (   0.5196024   0.0000000  -0.0000182), wk =   0.0219780
        k(   65) = (   0.5003579   0.0000000  -0.0000175), wk =   0.0219780
        k(   66) = (   0.4811133   0.0000000  -0.0000168), wk =   0.0219780
        k(   67) = (   0.4618688   0.0000000  -0.0000162), wk =   0.0219780
        k(   68) = (   0.4426243   0.0000000  -0.0000155), wk =   0.0219780
        k(   69) = (   0.4233797   0.0000000  -0.0000148), wk =   0.0219780
        k(   70) = (   0.4041352   0.0000000  -0.0000141), wk =   0.0219780
        k(   71) = (   0.3848907   0.0000000  -0.0000135), wk =   0.0219780
        k(   72) = (   0.3656461   0.0000000  -0.0000128), wk =   0.0219780
        k(   73) = (   0.3464016   0.0000000  -0.0000121), wk =   0.0219780
        k(   74) = (   0.3271571   0.0000000  -0.0000114), wk =   0.0219780
        k(   75) = (   0.3079125   0.0000000  -0.0000108), wk =   0.0219780
        k(   76) = (   0.2886680   0.0000000  -0.0000101), wk =   0.0219780
        k(   77) = (   0.2694235   0.0000000  -0.0000094), wk =   0.0219780
        k(   78) = (   0.2501789   0.0000000  -0.0000088), wk =   0.0219780
        k(   79) = (   0.2309344   0.0000000  -0.0000081), wk =   0.0219780
        k(   80) = (   0.2116899   0.0000000  -0.0000074), wk =   0.0219780
        k(   81) = (   0.1924453   0.0000000  -0.0000067), wk =   0.0219780
        k(   82) = (   0.1732008   0.0000000  -0.0000061), wk =   0.0219780
        k(   83) = (   0.1539563   0.0000000  -0.0000054), wk =   0.0219780
        k(   84) = (   0.1347117   0.0000000  -0.0000047), wk =   0.0219780
        k(   85) = (   0.1154672   0.0000000  -0.0000040), wk =   0.0219780
        k(   86) = (   0.0962227   0.0000000  -0.0000034), wk =   0.0219780
        k(   87) = (   0.0769781   0.0000000  -0.0000027), wk =   0.0219780
        k(   88) = (   0.0577336   0.0000000  -0.0000020), wk =   0.0219780
        k(   89) = (   0.0384891   0.0000000  -0.0000013), wk =   0.0219780
        k(   90) = (   0.0192445   0.0000000  -0.0000007), wk =   0.0219780
        k(   91) = (   0.0000000   0.0000000   0.0000000), wk =   0.0219780

     Dense  grid:    63851 G-vectors     FFT dimensions: (  32,  32, 160)

     Estimated max dynamical RAM per process >      14.37 MB

     Estimated total dynamical RAM >     316.04 MB

     Check: negative core charge=   -0.000003

     The potential is recalculated from file :
     ./work/Al2SO.save/charge-density

     Starting wfcs are   32 randomized atomic wfcs +   40 random wfcs
     Checking if some PAW data can be deallocated... 

     Band Structure Calculation
     Davidson diagonalization with overlap
     c_bands:  1 eigenvalues not converged
     c_bands:  1 eigenvalues not converged
     c_bands:  1 eigenvalues not converged
     c_bands:  1 eigenvalues not converged

     ethr =  2.78E-11,  avg # of iterations = 65.4

     total cpu time spent up to now is      262.5 secs

     End of band structure calculation

          k = 0.0000 0.0000 0.0000 (  7991 PWs)   bands (ev):

   -15.2250 -15.2103  -9.6715  -9.6569  -2.1519  -2.0266  -0.2171  -0.1442
    -0.1438  -0.1274  -0.1270   0.1708   2.3428   2.8902   4.2084   4.2088
     4.2246   4.2251   5.5884   6.2013   9.2209  10.4570  10.6366  10.9700
    11.3336  11.7031  11.7050  11.7239  11.7258  13.2171  13.2184  13.2521
    13.2534  13.3668  15.0768  15.0782  15.1196  15.1209  15.2408  15.8444
    17.2322  17.2340  17.2769  17.2788  18.3972  18.4650  18.7072  19.1884
    19.4564  19.4572  19.5792  19.5801  19.8830  20.6726  20.9023  21.3650
    22.0140  22.0159  22.3354  22.3376  23.0091  23.4908  23.7421  23.7427
    24.2077  24.2089  25.2929  26.0590  26.0611  26.2574  26.2599  26.4745

          k = 0.0192-0.0111-0.0000 (  7999 PWs)   bands (ev):

   -15.2232 -15.2085  -9.6666  -9.6521  -2.1477  -2.0228  -0.2140  -0.1594
    -0.1460  -0.1426  -0.1292   0.1753   2.3528   2.8980   4.1742   4.1904
     4.2011   4.2174   5.6027   6.2142   9.2238  10.4788  10.6636  10.9719
    11.3295  11.6773  11.7078  11.7165  11.7373  13.1781  13.2076  13.2234
    13.2586  13.3584  15.0403  15.0524  15.0649  15.1099  15.2829  15.9018
    17.2003  17.2506  17.2597  17.2896  18.4292  18.5101  18.7368  19.2276
    19.4321  19.4576  19.5542  19.5815  19.9094  20.7116  20.9375  21.3411
    22.0376  22.0418  22.2544  22.3391  23.0924  23.4782  23.7338  23.7424
    24.1960  24.2012  25.3057  26.0187  26.0944  26.2370  26.2455  26.4995

          k = 0.0385-0.0222-0.0000 (  8007 PWs)   bands (ev):

   -15.2178 -15.2031  -9.6520  -9.6375  -2.1352  -2.0118  -0.2129  -0.2012
    -0.1816  -0.1523  -0.1355   0.1878   2.3818   2.9205   4.0745   4.0910
     4.1783   4.1945   5.6446   6.2524   9.2317  10.5354  10.7401  10.9784
    11.3145  11.5961  11.6714  11.7524  11.7736  13.0681  13.0876  13.2392
    13.2746  13.3304  14.8683  14.9652  15.0265  15.0768  15.3947  16.0303
    17.1149  17.2189  17.2936  17.3167  18.5159  18.6364  18.8225  19.3177
    19.3696  19.4661  19.4932  19.5983  19.9860  20.8214  21.0249  21.2892
    22.0836  22.0960  22.1249  22.3406  23.2498  23.4416  23.7069  23.7709
    24.1576  24.1768  25.3428  25.9183  26.1803  26.1969  26.2052  26.5665

          k = 0.0577-0.0333-0.0000 (  8014 PWs)   bands (ev):

   -15.2088 -15.1941  -9.6278  -9.6133  -2.1148  -1.9939  -0.2804  -0.2591
    -0.1799  -0.1630  -0.1462   0.2069   2.4268   2.9550   3.9181   3.9352
     4.1401   4.1563   5.7118   6.3144   9.2426  10.6008  10.8528  10.9909
    11.2834  11.4691  11.6364  11.8108  11.8341  12.9054  12.9185  13.2651
    13.2735  13.3104  14.6469  14.8481  14.9700  15.0196  15.5477  16.1620
    17.0027  17.1837  17.3431  17.3505  18.6450  18.7971  18.9472  19.3007
    19.3237  19.4678  19.5125  19.6961  20.1041  20.9793  21.0919  21.2784
    21.9117  22.1655  22.2684  22.3356  23.3444  23.3891  23.6789  23.8907
    24.0919  24.1244  25.4001  25.8008  26.1205  26.1716  26.3103  26.6549

          k = 0.0770-0.0445-0.0000 (  8024 PWs)   bands (ev):

   -15.1964 -15.1817  -9.5940  -9.5795  -2.0872  -1.9702  -0.3754  -0.3453
    -0.1781  -0.1615  -0.1554   0.2317   2.4836   2.9973   3.7172   3.7347
     4.0861   4.1023   5.8020   6.3983   9.2545  10.6351  10.9749  10.9982
    11.2520  11.3171  11.6236  11.8834  11.9147  12.7105  12.7239  13.2104
    13.3063  13.3504  14.4193  14.7041  14.9133  14.9382  15.7138  16.2421
    16.8877  17.1722  17.3834  17.3992  18.8021  18.9003  19.0495  19.2264
    19.3066  19.4650  19.6603  19.9182  20.2462  21.0659  21.1505  21.3655
    21.7721  22.2373  22.3393  22.4813  23.3030  23.3434  23.6901  23.9915
    24.0339  24.1184  25.4737  25.6983  26.0069  26.2121  26.3305  26.7176

          k = 0.0962-0.0556-0.0000 (  8029 PWs)   bands (ev):

   -15.1807 -15.1660  -9.5509  -9.5364  -2.0536  -1.9421  -0.4856  -0.4453
    -0.1978  -0.1810  -0.1236   0.2619   2.5465   3.0385   3.4878   3.5038
     4.0161   4.0323   5.9131   6.5018   9.2656  10.6066  10.9555  11.0107
    11.2282  11.2775  11.6377  11.9449  11.9993  12.5018  12.5234  13.1531
    13.3681  13.4134  14.2141  14.5332  14.8364  14.8790  15.8713  16.2476
    16.7845  17.1526  17.3956  17.5010  18.8911  18.9394  19.0832  19.1720
    19.4359  19.4488  19.9451  20.1968  20.3942  21.0413  21.2677  21.4633
    21.6937  22.3031  22.4033  22.7630  23.2160  23.2611  23.7545  23.8381
    23.9502  24.3740  25.5596  25.6284  25.8607  26.1600  26.3356  26.8123

          k = 0.1155-0.0667-0.0000 (  8032 PWs)   bands (ev):

   -15.1618 -15.1472  -9.4985  -9.4840  -2.0158  -1.9121  -0.6042  -0.5521
    -0.2222  -0.2054  -0.0849   0.2972   2.6057   3.0379   3.2499   3.2874
     3.9297   3.9459   6.0430   6.6224   9.2742  10.5063  10.8420  10.8795
    11.3170  11.3470  11.6695  11.9518  12.0468  12.2940  12.3432  13.1304
    13.4698  13.5112  14.0499  14.3398  14.7286  14.8799  16.0057  16.1976
    16.6985  17.0903  17.3726  17.6424  18.8596  18.9154  19.0938  19.3046
    19.4277  19.6142  20.3082  20.3944  20.6273  21.0607  21.2795  21.5408
    21.7144  22.3594  22.5743  23.0582  23.1487  23.1743  23.6374  23.8582
    23.8915  24.6024  25.5739  25.6269  25.7466  25.9835  26.5183  26.8652

          k = 0.1347-0.0778-0.0000 (  8041 PWs)   bands (ev):

   -15.1401 -15.1255  -9.4373  -9.4228  -1.9768  -1.8839  -0.7239  -0.6579
    -0.2516  -0.2348  -0.0400   0.3370   2.6294   2.8625   3.0273   3.2391
     3.8269   3.8431   6.1898   6.7576   9.2787  10.3455  10.6270  10.7936
    11.4113  11.4398  11.6997  11.8706  12.0010  12.1012  12.2336  13.1442
    13.6264  13.6537  13.9267  14.1459  14.6427  14.9220  16.1061  16.1204
    16.6300  16.9864  17.3116  17.7667  18.8388  18.8575  19.1213  19.3973
    19.5307  19.7779  20.4271  20.7281  20.9367  21.1511  21.2208  21.6078
    21.8591  22.3950  22.8140  22.9591  23.1411  23.3989  23.5137  23.8666
    23.9968  24.7146  25.4523  25.5738  25.8503  25.9282  26.7302  26.9111

          k = 0.1540-0.0889-0.0000 (  8036 PWs)   bands (ev):

   -15.1158 -15.1011  -9.3674  -9.3529  -1.9414  -1.8629  -0.8366  -0.7538
    -0.2861  -0.2694   0.0105   0.3809   2.5158   2.5911   2.9334   3.2799
     3.7078   3.7240   6.3516   6.9043   9.2764  10.1451  10.4006  10.7045
    11.4473  11.5435  11.6784  11.7083  11.9275  11.9429  12.1962  13.1637
    13.7235  13.7706  13.8688  14.0839  14.6322  15.0086  16.0183  16.1783
    16.5790  16.8527  17.2161  17.8402  18.7756  18.8807  19.1908  19.3829
    19.7279  19.9103  20.4579  20.9117  21.1098  21.3237  21.4787  21.7035
    22.0756  22.3728  22.8485  22.9644  23.1848  23.3069  23.8818  23.9126
    24.1471  24.6636  25.2632  25.5549  26.0115  26.0672  26.9093  26.9896

          k = 0.1732-0.1000-0.0000 (  8029 PWs)   bands (ev):

   -15.0890 -15.0744  -9.2892  -9.2748  -1.9167  -1.8562  -0.9324  -0.8299
    -0.3259  -0.3092   0.0658   0.4276   2.2720   2.3028   2.9672   3.3340
     3.5728   3.5890   6.5264   7.0596   9.2624   9.9211  10.1751  10.6061
    11.3903  11.4995  11.5883  11.6011  11.8562  11.9429  12.2087  13.1667
    13.5579  13.6645  14.0152  14.2984  14.7664  15.1490  15.9027  16.2097
    16.5475  16.7058  17.0967  17.8706  18.7286  18.9115  19.2885  19.3659
    19.8440  20.0236  20.5067  20.7894  21.4099  21.5011  21.8876  21.9356
    22.2551  22.3146  22.7904  23.0121  23.0495  23.6334  23.9459  24.2525
    24.2903  24.5706  25.1123  25.5304  26.2038  26.3207  26.9888  27.0685

          k = 0.1924-0.1111-0.0000 (  8013 PWs)   bands (ev):

   -15.0603 -15.0457  -9.2033  -9.1888  -1.9122  -1.8710  -0.9998  -0.8766
    -0.3713  -0.3546   0.1248   0.4753   1.9960   2.0140   3.0356   3.3834
     3.4261   3.4424   6.7124   7.2203   9.2279   9.6829   9.9625  10.4951
    11.2276  11.2742  11.5068  11.5501  11.9008  12.0138  12.2733  13.1470
    13.3363  13.5076  14.1234  14.5615  15.0497  15.3630  15.7703  16.2051
    16.5353  16.5664  16.9717  17.8818  18.6959  18.9431  19.3341  19.3683
    19.8562  20.1392  20.4435  20.8918  21.5718  21.6717  22.0662  22.2573
    22.3235  22.5824  22.7048  23.0052  23.1907  23.9625  24.0297  24.1679
    24.5368  24.6880  25.1248  25.5003  26.3701  26.6309  27.0595  27.0825

          k = 0.2117-0.1222-0.0000 (  8028 PWs)   bands (ev):

   -15.0299 -15.0153  -9.1101  -9.0957  -1.9363  -1.9105  -1.0293  -0.8885
    -0.4224  -0.4058   0.1856   0.5207   1.7185   1.7346   3.1112   3.2556
     3.2725   3.4515   6.9077   7.3825   9.1571   9.4362   9.7802  10.3688
    11.0273  11.0492  11.4263  11.4617  12.0105  12.1151  12.3749  13.0825
    13.1377  13.3335  14.1957  14.7738  15.3551  15.6580  15.6767  16.1726
    16.4574  16.5335  16.8720  17.8914  18.6745  18.9756  19.2574  19.4069
    19.8147  20.2530  20.3574  21.1288  21.5490  21.8957  21.9679  22.4011
    22.4874  22.9189  22.9606  23.1134  23.3706  23.9413  24.1310  24.3466
    24.5626  24.9383  25.3988  25.4641  26.4794  26.9398  27.0838  27.1617

          k = 0.2309-0.1334-0.0000 (  8027 PWs)   bands (ev):

   -14.9982 -14.9836  -9.0102  -8.9958  -1.9907  -1.9722  -1.0187  -0.8673
    -0.4794  -0.4628   0.2450   0.5565   1.4517   1.4766   3.0753   3.0914
     3.1961   3.5045   7.1106   7.5420   9.0334   9.1850   9.6465  10.2248
    10.8278  10.8363  11.3491  11.3811  12.1388  12.2362  12.4986  12.8883
    13.0639  13.1565  14.2502  14.9132  15.3130  15.9006  15.9846  16.1261
    16.4226  16.5365  16.8489  17.9074  18.6608  19.0077  19.1076  19.4151
    19.7895  20.3320  20.3322  21.3787  21.4506  21.8247  22.1667  22.3522
    22.6358  23.1669  23.3726  23.4365  23.4406  23.9507  24.2392  24.5697
    24.6352  25.2071  25.4516  25.7536  26.5094  27.0792  27.2351  27.2671

          k = 0.2502-0.1445-0.0000 (  8022 PWs)   bands (ev):

   -14.9656 -14.9511  -8.9045  -8.8901  -2.0675  -2.0500  -0.9749  -0.8204
    -0.5421  -0.5256   0.2960   0.5657   1.2079   1.2604   2.8870   2.9032
     3.2712   3.5553   7.3196   7.6933   8.8588   8.9325   9.5610  10.0622
    10.6432  10.6465  11.2800  11.3155  12.2727  12.3718  12.6327  12.6985
    12.9868  12.9985  14.2893  14.9808  15.1120  16.0630  16.0915  16.1936
    16.6040  16.6092  16.9733  17.9312  18.6385  18.9161  19.0407  19.4119
    19.8119  20.3432  20.3580  21.3531  21.6073  21.6790  22.3700  22.3918
    22.7471  23.2909  23.3212  23.7262  23.8794  24.2539  24.3639  24.6761
    24.8884  25.2672  25.6654  26.0785  26.4776  27.1114  27.3874  27.4421

          k = 0.2694-0.1556-0.0000 (  8023 PWs)   bands (ev):

   -14.9326 -14.9180  -8.7937  -8.7794  -2.1553  -2.1376  -0.9086  -0.7577
    -0.6107  -0.5941   0.3234   0.5169   1.0083   1.1211   2.6879   2.7041
     3.3452   3.6024   7.5328   7.8285   8.6549   8.6820   9.5062   9.8853
    10.4796  10.4858  11.2199  11.2630  12.3844  12.5183  12.5527  12.7607
    12.8490  12.9330  14.3079  14.8965  14.9739  16.0191  16.1030  16.2121
    16.7151  16.9989  17.2877  17.9600  18.5277  18.8118  19.0818  19.4095
    19.8773  20.2803  20.4173  21.3010  21.5098  21.8036  22.4196  22.5999
    22.7870  23.2157  23.4133  23.9977  24.1948  24.5943  24.6753  24.8939
    25.0626  25.2826  25.9673  26.2909  26.4763  27.1529  27.4454  27.5085

          k = 0.2887-0.1667-0.0000 (  8010 PWs)   bands (ev):

   -14.8995 -14.8849  -8.6789  -8.6646  -2.2459  -2.2282  -0.8315  -0.6959
    -0.6814  -0.6663   0.3004   0.3961   0.8867   1.0778   2.4807   2.4969
     3.4151   3.6450   7.7480   7.9336   8.4298   8.4527   9.4682   9.7036
    10.3404  10.3531  11.1665  11.2182  12.3372  12.5820  12.6618  12.7047
    12.8796  12.9370  14.2912  14.7089  14.8947  15.9790  16.0744  16.1938
    16.8126  17.4037  17.6427  17.9873  18.3568  18.8421  19.1440  19.4153
    19.9811  20.1728  20.4976  21.2882  21.3467  21.9686  22.4510  22.7183
    22.8104  23.2040  23.5378  24.2115  24.3434  24.9340  24.9654  25.1540
    25.1985  25.5270  26.2114  26.2874  26.6595  27.0969  27.5046  27.5196

          k = 0.3079-0.1778-0.0000 (  8006 PWs)   bands (ev):

   -14.8667 -14.8522  -8.5612  -8.5469  -2.3338  -2.3162  -0.7708  -0.7563
    -0.7439  -0.6311   0.2205   0.2431   0.8605   1.0997   2.2675   2.2837
     3.4792   3.6825   7.9583   7.9695   8.1915   8.2850   9.4434   9.5286
    10.2125  10.2581  11.1154  11.1745  12.2369  12.5855  12.6347  12.8466
    12.9194  13.0537  14.2164  14.5950  14.7616  15.9250  16.0317  16.1923
    16.9076  17.7467  17.7580  18.0058  18.3917  18.9540  19.2135  19.4539
    20.0677  20.1291  20.5902  21.2066  21.2967  22.1062  22.4726  22.6064
    23.0171  23.2198  23.6550  24.3667  24.4394  24.9105  25.2655  25.4279
    25.5000  25.9207  26.2965  26.3666  26.8778  26.9340  27.3164  27.4185

          k = 0.3272-0.1889-0.0000 (  7995 PWs)   bands (ev):

   -14.8347 -14.8202  -8.4418  -8.4276  -2.4152  -2.3978  -0.8520  -0.8354
    -0.6981  -0.6056   0.1015   0.1378   0.8998   1.1531   2.0502   2.0665
     3.5363   3.7141   7.8588   7.9398   8.1838   8.2337   9.3719   9.4338
    10.0935  10.1965  11.0614  11.1260  12.1667  12.5192  12.6213  13.0153
    13.0516  13.1364  14.1125  14.5590  14.5982  15.8507  15.9740  16.2039
    16.9921  17.6075  17.9640  18.0485  18.6050  19.1680  19.2123  19.5626
    20.0283  20.3347  20.6896  21.1172  21.3114  22.2100  22.4981  22.5159
    23.1818  23.2401  23.7392  24.4238  24.5230  24.8817  25.5303  25.6204
    25.6899  26.2623  26.4212  26.4748  26.7471  26.9926  27.2031  27.2975

          k = 0.3464-0.2000-0.0000 (  7983 PWs)   bands (ev):

   -14.8040 -14.7894  -8.3223  -8.3081  -2.4874  -2.4703  -0.9422  -0.9257
    -0.6869  -0.6327   0.0173   0.0979   0.9716   1.2217   1.8308   1.8472
     3.5856   3.7396   7.6650   7.7126   8.2411   8.3758   9.2490   9.4389
     9.9818  10.1628  10.9998  11.0703  12.1335  12.4921  12.5983  13.1014
    13.2176  13.2339  14.0560  14.4173  14.5728  15.7613  15.8992  16.2068
    17.0169  17.4758  17.9529  18.2127  18.7676  19.1287  19.4533  19.6525
    20.0898  20.6180  20.7951  21.1426  21.3220  22.2397  22.5045  22.5365
    23.1198  23.4291  23.7588  24.3531  24.6099  24.9351  25.5925  25.7244
    25.8869  26.1524  26.5098  26.5807  26.8229  26.9096  27.3454  27.5290

          k = 0.3656-0.2111-0.0000 (  7985 PWs)   bands (ev):

   -14.7747 -14.7602  -8.2042  -8.1901  -2.5487  -2.5318  -1.0370  -1.0205
    -0.7350  -0.7101   0.0061   0.1165   1.0597   1.2979   1.6118   1.6284
     3.6263   3.7587   7.4551   7.4901   8.2478   8.5340   9.1844   9.4541
     9.8768  10.1496  10.9283  11.0107  12.1343  12.5063  12.5947  13.0115
    13.4028  13.4180  14.0703  14.2382  14.6187  15.6614  15.8085  16.1807
    16.9165  17.4874  17.8993  18.3400  18.8893  18.9978  19.6898  19.7217
    20.1390  20.8785  21.0105  21.3120  21.3703  22.1808  22.5805  22.5953
    22.9911  23.6202  23.6991  24.2050  24.7045  25.0185  25.5278  25.7040
    25.9806  26.0594  26.3620  26.6471  26.8889  27.2325  27.5787  27.9074

          k = 0.3849-0.2223-0.0000 (  7990 PWs)   bands (ev):

   -14.7474 -14.7329  -8.0894  -8.0753  -2.5977  -2.5808  -1.1358  -1.1193
    -0.8258  -0.8106   0.0516   0.1728   1.1553   1.3516   1.4008   1.4347
     3.6584   3.7716   7.2463   7.2760   8.2487   8.6201   9.2137   9.4705
     9.7798  10.1479  10.8470  10.9553  12.1634  12.5589  12.6207  12.8575
    13.5975  13.6131  14.0676  14.1145  14.7064  15.5529  15.7084  16.1109
    16.7564  17.5954  17.8264  18.4246  18.8470  18.9970  19.7009  19.9405
    20.1184  20.9913  21.2666  21.4188  21.7740  22.0796  22.6530  22.7087
    22.8262  23.5423  23.8316  24.0261  24.7944  25.0866  25.4685  25.5561
    25.8993  26.1599  26.2827  26.7666  27.0530  27.4851  27.8497  28.2339

          k = 0.4041-0.2334-0.0000 (  7976 PWs)   bands (ev):

   -14.7223 -14.7078  -7.9797  -7.9657  -2.6333  -2.6164  -1.2377  -1.2212
    -0.9281  -0.9125   0.1248   0.2449   1.1597   1.1790   1.2819   1.4820
     3.6824   3.7790   7.0439   7.0719   8.2501   8.6342   9.3312   9.4808
     9.6966  10.1459  10.7576  10.9143  12.2164  12.6199  12.6794  12.7091
    13.7925  13.8075  13.9196  14.1454  14.8381  15.4363  15.6112  15.9941
    16.6033  17.7217  17.7578  18.4629  18.7001  19.0958  19.6634  20.0972
    20.1155  21.0930  21.1651  21.6977  22.0399  22.2680  22.6641  22.7266
    22.8650  23.3773  23.8422  24.0352  24.8643  25.1196  25.4258  25.4854
    25.8176  26.2331  26.3161  26.9343  27.2310  27.7081  28.0657  28.3800

          k = 0.4234-0.2445-0.0000 (  7950 PWs)   bands (ev):

   -14.6996 -14.6851  -7.8771  -7.8631  -2.6551  -2.6381  -1.3420  -1.3255
    -1.0210  -1.0038   0.2062   0.3196   0.9549   0.9713   1.3802   1.5707
     3.6995   3.7823   6.8511   6.8792   8.2580   8.6205   9.4549   9.4835
     9.6613  10.1322  10.6620  10.8957  12.2914  12.4889  12.7619  12.7908
    13.7740  13.9794  14.0169  14.1561  14.9964  15.3109  15.5400  15.8440
    16.4691  17.6397  17.9039  18.4387  18.5815  19.1837  19.5595  20.1071
    20.2446  21.0039  21.1615  21.5744  22.1920  22.6678  22.7689  22.7927
    23.0558  23.2777  23.6809  24.2466  24.9145  25.1071  25.3691  25.5775
    25.7684  26.3020  26.4203  27.1013  27.4133  27.9107  28.2518  28.3298

          k = 0.4426-0.2556-0.0000 (  7940 PWs)   bands (ev):

   -14.6796 -14.6651  -7.7834  -7.7694  -2.6626  -2.6455  -1.4478  -1.4313
    -1.0947  -1.0766   0.2853   0.3897   0.7486   0.7650   1.4880   1.6615
     3.7119   3.7832   6.6701   6.6997   8.2754   8.6086   9.4592   9.4775
     9.7688  10.1007  10.5611  10.9002  12.3318  12.3885  12.8656  12.9399
    13.6781  14.0434  14.2056  14.2439  15.1295  15.1791  15.5424  15.6842
    16.3482  17.5372  18.0697  18.3466  18.5036  19.2492  19.4086  20.0736
    20.3041  20.8440  21.0951  21.4656  22.1877  22.7925  22.8511  23.2389
    23.2964  23.3491  23.5685  24.4768  24.9525  25.0645  25.3742  25.7160
    25.8118  26.3671  26.5507  27.2442  27.5867  28.0973  28.2000  28.4412

          k = 0.4619-0.2667-0.0000 (  7944 PWs)   bands (ev):

   -14.6623 -14.6479  -7.7004  -7.6864  -2.6559  -2.6387  -1.5539  -1.5374
    -1.1446  -1.1259   0.3565   0.4512   0.5491   0.5655   1.5930   1.7500
     3.7221   3.7841   6.5037   6.5355   8.3021   8.6076   9.4169   9.4598
     9.9389  10.0527  10.4551  10.9210  12.1993  12.5061  12.9745  13.1155
    13.6253  13.9735  14.3783  14.4172  15.0270  15.1953  15.5361  15.6746
    16.2366  17.4323  18.2166  18.2426  18.4299  19.2288  19.2672  19.8742
    20.2489  20.8120  20.9543  21.4704  22.1703  22.8257  23.0099  23.3727
    23.3843  23.6635  23.7625  24.7247  24.9803  25.0269  25.4539  25.8773
    25.9589  26.4174  26.6788  27.3388  27.7142  28.1459  28.2751  28.5718

          k = 0.4811-0.2778-0.0000 (  7958 PWs)   bands (ev):

   -14.6480 -14.6335  -7.6295  -7.6155  -2.6356  -2.6182  -1.6592  -1.6426
    -1.1685  -1.1494   0.3565   0.3724   0.4199   0.5040   1.6899   1.8321
     3.7326   3.7872   6.3545   6.3891   8.3347   8.6164   9.3803   9.4464
     9.9929  10.1045  10.3432  10.9480  12.1016  12.6388  13.0761  13.3121
    13.6280  13.8589  14.5121  14.5862  14.8726  15.2104  15.4304  15.8919
    16.1352  17.3318  18.1101  18.3308  18.3669  19.0243  19.2061  19.5370
    20.1288  20.8858  20.9117  21.4630  22.2224  22.9026  23.1081  23.3474
    23.5054  23.8614  24.1122  24.8575  24.9588  25.1765  25.6287  26.0508
    26.1984  26.4323  26.7783  27.3703  27.7907  28.2271  28.3931  28.5036

          k = 0.5004-0.2889-0.0000 (  7963 PWs)   bands (ev):

   -14.6365 -14.6220  -7.5717  -7.5578  -2.6027  -2.5853  -1.7618  -1.7452
    -1.1664  -1.1471   0.1779   0.1944   0.4667   0.5448   1.7738   1.9038
     3.7454   3.7941   6.2261   6.2634   8.3675   8.6290   9.3684   9.4425
     9.9265  10.2247  10.2465  10.9727  12.0452  12.7737  13.1725  13.5227
    13.6825  13.7256  14.5792  14.7153  14.7304  15.2217  15.3913  16.0392
    16.1484  17.2437  17.9846  18.2564  18.3586  18.7848  19.1176  19.1879
    20.0664  20.8347  21.0681  21.4381  22.3404  23.0248  23.1456  23.3407
    23.6452  23.9908  24.3514  24.8126  24.9337  25.4763  25.8681  26.2409
    26.4103  26.5232  26.8167  27.3991  27.8759  28.1697  28.3154  28.3951

          k = 0.5196-0.3000-0.0000 (  7958 PWs)   bands (ev):

   -14.6278 -14.6133  -7.5276  -7.5137  -2.5596  -2.5422  -1.8590  -1.8424
    -1.1409  -1.1214   0.0146   0.0313   0.5028   0.5754   1.8406   1.9612
     3.7607   3.8049   6.1219   6.1618   8.3942   8.6377   9.3915   9.4562
     9.8558  10.0992  10.3560  10.9904  12.0303  12.8898  13.2891  13.5634
    13.7577  13.7725  14.5150  14.6327  14.8298  15.2336  15.4203  15.9562
    16.4080  17.1759  17.8492  18.1593  18.1797  18.5169  18.9115  19.1379
    20.0662  20.7622  21.2397  21.4195  22.4953  23.1413  23.1881  23.3473
    23.7797  24.0701  24.4614  24.7208  24.9225  25.6623  26.1133  26.4194
    26.4920  26.7512  26.9269  27.4812  27.9276  27.9617  28.2218  28.3091

          k = 0.5388-0.3112-0.0000 (  7966 PWs)   bands (ev):

   -14.6218 -14.6074  -7.4971  -7.4833  -2.5113  -2.4937  -1.9458  -1.9292
    -1.0989  -1.0794  -0.1250  -0.1083   0.5272   0.5960   1.8878   2.0020
     3.7768   3.8177   6.0457   6.0874   8.4100   8.6384   9.4539   9.4930
     9.7821   9.9679  10.4293  10.9996  12.0474  12.9725  13.4333  13.4499
    13.8085  14.0116  14.3541  14.6465  14.8561  15.2434  15.4811  15.8657
    16.6595  17.1330  17.7053  17.9289  18.0157  18.3254  18.7193  19.2316
    20.0828  20.6845  21.4001  21.4097  22.6638  23.1236  23.3360  23.3789
    23.8966  24.1271  24.3408  24.7166  24.9182  25.6742  26.2773  26.4981
    26.6972  26.8166  27.3247  27.5965  27.7868  27.9506  28.0333  28.2801

          k = 0.5581-0.3223-0.0000 (  7972 PWs)   bands (ev):

   -14.6184 -14.6040  -7.4797  -7.4658  -2.4679  -2.4503  -2.0120  -1.9954
    -1.0553  -1.0357  -0.2265  -0.2097   0.5409   0.6076   1.9150   2.0254
     3.7898   3.8287   6.0000   6.0428   8.4151   8.6335   9.5459   9.5579
     9.7062   9.8337  10.4686  11.0021  12.0754  13.0241  13.3456  13.6209
    13.8070  14.2044  14.2621  14.6963  14.7766  15.2530  15.5382  15.7606
    16.8656  17.1117  17.5695  17.7448  17.8657  18.2566  18.5917  19.3204
    20.0885  20.6343  21.4005  21.5247  22.8279  23.0763  23.3210  23.5815
    23.9797  24.0934  24.1695  24.7448  24.9093  25.6362  26.2672  26.5774
    26.7989  27.1365  27.5363  27.6972  27.7330  27.8161  27.9567  28.3284

          k = 0.5773-0.3334-0.0000 (  7974 PWs)   bands (ev):

   -14.6173 -14.6029  -7.4742  -7.4603  -2.4487  -2.4311  -2.0387  -2.0221
    -1.0347  -1.0152  -0.2659  -0.2491   0.5451   0.6112   1.9234   2.0327
     3.7951   3.8333   5.9852   6.0284   8.4149   8.6300   9.6138   9.6386
     9.6494   9.7286  10.4801  11.0017  12.0889  13.0438  13.3116  13.7287
    13.7817  14.1288  14.4526  14.6407  14.7325  15.2583  15.5616  15.6979
    16.9498  17.1062  17.5080  17.6830  17.8116  18.2431  18.5414  19.3562
    20.0859  20.6220  21.3956  21.5752  22.9448  23.0065  23.3101  23.7389
    23.9004  24.0172  24.1864  24.7518  24.9010  25.6193  26.2386  26.6110
    26.8895  27.3016  27.4424  27.7003  27.7480  27.8980  27.9091  28.3727

          k = 0.5773-0.3223-0.0000 (  7966 PWs)   bands (ev):

   -14.6176 -14.6031  -7.4755  -7.4616  -2.4541  -2.4365  -2.0314  -2.0148
    -1.0409  -1.0213  -0.2552  -0.2384   0.5442   0.6103   1.9215   2.0311
     3.7936   3.8320   5.9886   6.0317   8.4156   8.6314   9.5837   9.6092
     9.6686   9.7708  10.4778  11.0022  12.0852  13.0379  13.3200  13.7090
    13.7767  14.1502  14.3711  14.7091  14.7220  15.2566  15.5635  15.7136
    16.9324  17.1061  17.5210  17.6963  17.8233  18.2452  18.5563  19.3471
    20.0875  20.6226  21.3978  21.5603  22.9000  23.0373  23.3149  23.6896
    23.9561  24.0129  24.1817  24.7511  24.9049  25.6235  26.2449  26.6010
    26.8665  27.2582  27.4729  27.7099  27.7572  27.8325  27.9377  28.3672

          k = 0.5773-0.3112-0.0000 (  7972 PWs)   bands (ev):

   -14.6183 -14.6039  -7.4792  -7.4653  -2.4697  -2.4521  -2.0104  -1.9938
    -1.0592  -1.0397  -0.2232  -0.2064   0.5414   0.6080   1.9160   2.0264
     3.7889   3.8277   5.9982   6.0413   8.4185   8.6363   9.5388   9.5506
     9.7067   9.8390  10.4717  11.0042  12.0749  13.0181  13.3443  13.6720
    13.7510  14.1943  14.2144  14.6943  14.8330  15.2516  15.5812  15.7539
    16.8899  17.1056  17.5505  17.7330  17.8547  18.2520  18.6023  19.3214
    20.0920  20.6208  21.4059  21.5135  22.8232  23.0703  23.3314  23.6223
    23.9688  24.0768  24.1675  24.7496  24.9188  25.6355  26.2578  26.5692
    26.8213  27.1608  27.5454  27.6806  27.7249  27.8136  27.9434  28.3672

          k = 0.5773-0.3000-0.0000 (  7972 PWs)   bands (ev):

   -14.6195 -14.6051  -7.4851  -7.4712  -2.4934  -2.4759  -1.9777  -1.9611
    -1.0882  -1.0687  -0.1718  -0.1551   0.5371   0.6043   1.9075   2.0190
     3.7808   3.8204   6.0128   6.0561   8.4251   8.6457   9.4754   9.5072
     9.7426   9.9094  10.4638  11.0087  12.0599  12.9823  13.3807  13.6232
    13.7180  14.0317  14.2193  14.6856  14.9629  15.2443  15.6168  15.8153
    16.8340  17.1062  17.5850  17.7870  17.8990  18.2657  18.6783  19.2830
    20.0980  20.6113  21.4212  21.4351  22.7355  23.0858  23.3604  23.5760
    23.9220  24.1451  24.1880  24.7462  24.9441  25.6541  26.2644  26.5143
    26.7913  27.0436  27.5654  27.6228  27.6581  27.8779  27.9271  28.3732

          k = 0.5773-0.2889-0.0000 (  7958 PWs)   bands (ev):

   -14.6211 -14.6067  -7.4929  -7.4791  -2.5228  -2.5052  -1.9361  -1.9195
    -1.1255  -1.1059  -0.1040  -0.0874   0.5316   0.5994   1.8963   2.0094
     3.7695   3.8101   6.0311   6.0750   8.4366   8.6604   9.4092   9.4669
     9.7740   9.9753  10.4570  11.0162  12.0433  12.9288  13.4213  13.5609
    13.6884  13.8391  14.1968  14.7281  15.0874  15.2412  15.6622  15.8981
    16.7721  17.1082  17.6193  17.8519  17.9503  18.2893  18.7802  19.2371
    20.1031  20.5900  21.3270  21.4463  22.6425  23.0855  23.3972  23.5549
    23.8550  24.1165  24.3026  24.7391  24.9798  25.6771  26.2552  26.4369
    26.7993  26.9221  27.4147  27.5524  27.7331  27.8920  27.9354  28.3747

          k = 0.5773-0.2778-0.0000 (  7954 PWs)   bands (ev):

   -14.6231 -14.6086  -7.5026  -7.4887  -2.5557  -2.5381  -1.8878  -1.8712
    -1.1683  -1.1487  -0.0227  -0.0062   0.5251   0.5936   1.8830   1.9980
     3.7551   3.7969   6.0517   6.0968   8.4542   8.6811   9.3438   9.4271
     9.7992  10.0299  10.4562  11.0274  12.0285  12.8556  13.4337  13.4863
    13.6624  13.6711  14.1423  14.8182  15.1637  15.2830  15.7115  16.0006
    16.7082  17.1107  17.6530  17.9216  18.0048  18.3241  18.9029  19.1893
    20.1047  20.5554  21.1981  21.4782  22.5491  23.0747  23.4351  23.5553
    23.7717  24.0845  24.4163  24.7264  25.0226  25.7007  26.2337  26.3401
    26.8041  26.8460  27.2458  27.4698  27.7643  27.8735  27.9784  28.3217

          k = 0.5773-0.2667-0.0000 (  7958 PWs)   bands (ev):

   -14.6254 -14.6110  -7.5137  -7.4998  -2.5907  -2.5730  -1.8344  -1.8178
    -1.2146  -1.1950   0.0692   0.0855   0.5183   0.5873   1.8680   1.9851
     3.7379   3.7810   6.0730   6.1201   8.4791   8.7082   9.2803   9.3881
     9.8166  10.0656  10.4676  11.0424  12.0187  12.7603  13.3145  13.4029
    13.6318  13.6387  14.0857  14.9354  15.1649  15.3958  15.7630  16.1187
    16.6449  17.1125  17.6874  17.9894  18.0610  18.3687  19.0413  19.1457
    20.1003  20.5086  21.0564  21.5143  22.4596  23.0574  23.4681  23.5695
    23.6769  24.0527  24.5269  24.7068  25.0682  25.7184  26.2091  26.2331
    26.6962  26.9058  27.0857  27.3792  27.6989  27.9004  28.0067  28.2405

          k = 0.5773-0.2556-0.0000 (  7956 PWs)   bands (ev):

   -14.6280 -14.6136  -7.5261  -7.5122  -2.6265  -2.6089  -1.7772  -1.7606
    -1.2628  -1.2430   0.1690   0.1850   0.5124   0.5809   1.8516   1.9711
     3.7183   3.7629   6.0935   6.1435   8.5122   8.7416   9.2198   9.3500
     9.8254  10.0764  10.4953  11.0608  12.0169  12.6405  13.1070  13.3192
    13.6142  13.6789  14.0421  15.0669  15.1474  15.5221  15.8168  16.2480
    16.5839  17.1126  17.7239  18.0484  18.1199  18.4189  19.1118  19.1926
    20.0865  20.4538  20.9116  21.5497  22.3778  23.0367  23.4907  23.5460
    23.6189  24.0258  24.6288  24.6829  25.1123  25.7182  26.1096  26.2090
    26.6053  26.8402  27.0644  27.2832  27.5919  27.9070  28.0150  28.1386

          k = 0.5773-0.2445-0.0000 (  7960 PWs)   bands (ev):

   -14.6309 -14.6164  -7.5395  -7.5257  -2.6627  -2.6450  -1.7171  -1.7006
    -1.3116  -1.2917   0.2729   0.2887   0.5104   0.5760   1.8344   1.9564
     3.6966   3.7428   6.1118   6.1658   8.5537   8.7798   9.1646   9.3136
     9.8252  10.0633  10.5368  11.0816  12.0257  12.4960  12.8816  13.2426
    13.5914  13.7415  14.0142  15.1243  15.2073  15.6466  15.8728  16.3849
    16.5264  17.1110  17.7638  18.0919  18.1830  18.4683  19.0960  19.3513
    20.0594  20.3977  20.7739  21.5786  22.3057  23.0150  23.4335  23.4988
    23.6459  24.0087  24.6356  24.7384  25.1512  25.6819  26.0007  26.2205
    26.5401  26.6705  27.1505  27.1845  27.4630  27.8770  27.9731  28.0550

          k = 0.5773-0.2334-0.0000 (  7968 PWs)   bands (ev):

   -14.6340 -14.6195  -7.5539  -7.5400  -2.6985  -2.6808  -1.6550  -1.6385
    -1.3601  -1.3401   0.3678   0.3905   0.5244   0.5769   1.8168   1.9413
     3.6733   3.7211   6.1265   6.1858   8.6038   8.8185   9.1195   9.2795
     9.8161  10.0317  10.5852  11.1032  12.0471  12.3300  12.6526  13.1781
    13.5716  13.8064  13.9989  15.0998  15.3521  15.7645  15.9308  16.4730
    16.5265  17.1087  17.8078  18.1149  18.2508  18.5103  19.1018  19.5159
    20.0149  20.3481  20.6539  21.5960  22.2434  22.9948  23.3063  23.4902
    23.6825  24.0040  24.5908  24.8270  25.1826  25.5964  25.9064  26.2477
    26.4990  26.5094  27.0853  27.2261  27.3210  27.8318  27.8603  28.0212

          k = 0.5773-0.2223-0.0000 (  7968 PWs)   bands (ev):

   -14.6372 -14.6227  -7.5688  -7.5549  -2.7338  -2.7160  -1.5918  -1.5752
    -1.4074  -1.3874   0.4176   0.4729   0.5849   0.6054   1.7991   1.9260
     3.6488   3.6982   6.1369   6.2027   8.6612   8.8466   9.0956   9.2493
     9.7988   9.9872  10.6333  11.1231  12.0821  12.1488  12.4258  13.1271
    13.5566  13.8690  13.9924  15.0740  15.4997  15.8718  15.9897  16.4249
    16.6696  17.1078  17.8565  18.1175  18.3198  18.5416  19.1299  19.6835
    19.9525  20.3099  20.5623  21.5988  22.1883  22.9779  23.1718  23.4696
    23.7181  24.0100  24.5361  24.9037  25.2053  25.4720  25.8188  26.2357
    26.3928  26.5105  26.9892  27.1580  27.2589  27.7328  27.8227  27.9872

          k = 0.5773-0.2111-0.0000 (  7954 PWs)   bands (ev):

   -14.6406 -14.6261  -7.5842  -7.5703  -2.7681  -2.7503  -1.5296  -1.5130
    -1.4512  -1.4314   0.4253   0.5019   0.6831   0.6987   1.7819   1.9110
     3.6235   3.6745   6.1423   6.2156   8.7235   8.8477   9.1091   9.2254
     9.7740   9.9341  10.6757  11.1380  11.9602  12.1222  12.2142  13.0884
    13.5479  13.9263  13.9923  15.0474  15.6483  15.9637  16.0480  16.3823
    16.8117  17.1112  17.9106  18.1051  18.3750  18.5709  19.1759  19.8509
    19.8772  20.2833  20.5089  21.5870  22.1355  22.9641  23.0329  23.4455
    23.7470  24.0213  24.4742  24.9604  25.2189  25.3310  25.7284  26.1034
    26.4306  26.5339  26.9023  26.9999  27.2031  27.6112  27.8803  27.9457

          k = 0.5773-0.2000-0.0000 (  7950 PWs)   bands (ev):

   -14.6440 -14.6296  -7.5999  -7.5860  -2.8014  -2.7835  -1.5091  -1.4900
    -1.4507  -1.4346   0.4198   0.5022   0.8010   0.8195   1.7658   1.8967
     3.5977   3.6504   6.1424   6.2243   8.7853   8.8209   9.1605   9.2128
     9.7429   9.8752  10.7084  11.1424  11.7738  11.9791  12.2101  13.0597
    13.5470  13.9710  14.0024  15.0202  15.7952  16.0347  16.1042  16.3458
    16.9490  17.1221  17.9711  18.0879  18.3858  18.6260  19.2310  19.7971
    20.0144  20.2654  20.5011  21.5629  22.0807  22.8905  22.9503  23.4282
    23.7635  24.0314  24.4080  24.9770  25.2022  25.2230  25.6352  25.9523
    26.5046  26.5547  26.8389  26.8477  27.0942  27.4994  27.8897  27.9985

          k = 0.5773-0.1889-0.0000 (  7954 PWs)   bands (ev):

   -14.6476 -14.6331  -7.6156  -7.6017  -2.8334  -2.8155  -1.5480  -1.5277
    -1.3903  -1.3739   0.4101   0.4953   0.9266   0.9471   1.7515   1.8835
     3.5718   3.6261   6.1372   6.2284   8.7792   8.8378   9.2196   9.2352
     9.7065   9.8127  10.7276  11.1251  11.6038  11.7806  12.2896  13.0385
    13.5545  13.9882  14.0360  14.9925  15.9346  16.0802  16.1581  16.3150
    17.0776  17.1438  18.0376  18.0789  18.3459  18.7159  19.2839  19.7224
    20.1682  20.2537  20.5426  21.5300  22.0217  22.7483  22.9281  23.4271
    23.7602  24.0336  24.3421  24.9038  25.1397  25.2159  25.5427  25.8147
    26.5282  26.5444  26.7508  26.8297  26.9630  27.4000  27.8351  28.1371

          k = 0.5773-0.1778-0.0000 (  7956 PWs)   bands (ev):

   -14.6511 -14.6367  -7.6312  -7.6173  -2.8641  -2.8461  -1.5888  -1.5682
    -1.3256  -1.3092   0.3988   0.4861   1.0539   1.0770   1.7404   1.8720
     3.5462   3.6020   6.1268   6.2279   8.7320   8.8697   9.2552   9.3217
     9.6663   9.7488  10.7292  11.0662  11.4736  11.5999  12.3849  13.0221
    13.5708  13.9969  14.0736  14.9641  16.0476  16.1017  16.2193  16.2871
    17.1783  17.1932  18.0898  18.1047  18.2833  18.8264  19.3197  19.6652
    20.2434  20.3113  20.6316  21.4920  21.9598  22.6071  22.8924  23.4465
    23.7293  24.0215  24.2812  24.7614  25.1250  25.1977  25.4545  25.6987
    26.4241  26.4839  26.7990  26.8295  26.8691  27.3136  27.7801  28.2865

          k = 0.5773-0.1667-0.0000 (  7960 PWs)   bands (ev):

   -14.6546 -14.6402  -7.6467  -7.6327  -2.8932  -2.8752  -1.6280  -1.6073
    -1.2611  -1.2446   0.3868   0.4758   1.1788   1.2067   1.7347   1.8635
     3.5210   3.5783   6.1118   6.2230   8.6829   8.8778   9.3202   9.4108
     9.6244   9.6875  10.7084  10.9523  11.3989  11.4474  12.4929  13.0083
    13.5950  14.0070  14.1059  14.9348  16.0810  16.1225  16.2553  16.3145
    17.2255  17.2943  18.1155  18.1335  18.2697  18.9487  19.3229  19.6381
    20.2370  20.4415  20.7578  21.4522  21.8983  22.4691  22.8417  23.4833
    23.6658  23.9906  24.2259  24.6037  25.1090  25.1709  25.3730  25.6061
    26.2705  26.4078  26.6986  26.9062  26.9271  27.2382  27.7324  28.4345

          k = 0.5773-0.1556-0.0000 (  7954 PWs)   bands (ev):

   -14.6581 -14.6437  -7.6617  -7.6478  -2.9208  -2.9027  -1.6652  -1.6444
    -1.1974  -1.1810   0.3745   0.4652   1.2956   1.3330   1.7389   1.8597
     3.4964   3.5552   6.0927   6.2140   8.6336   8.8678   9.4006   9.4823
     9.5873   9.6447  10.6620  10.8037  11.3269  11.3682  12.6116  12.9949
    13.6250  14.0215  14.1321  14.9043  16.0616  16.1226  16.2121  16.4376
    17.2826  17.3848  18.0402  18.2112  18.3497  19.0788  19.2930  19.6392
    20.2293  20.5689  20.9050  21.4141  21.8408  22.3368  22.7786  23.5276
    23.5712  23.9404  24.1669  24.4521  25.0808  25.1419  25.2996  25.5318
    26.1118  26.3310  26.5828  26.9819  27.0210  27.1701  27.7011  28.5000

          k = 0.5773-0.1445-0.0000 (  7962 PWs)   bands (ev):

   -14.6615 -14.6470  -7.6763  -7.6623  -2.9468  -2.9286  -1.7002  -1.6792
    -1.1353  -1.1189   0.3623   0.4545   1.3946   1.4512   1.7614   1.8650
     3.4728   3.5329   6.0700   6.2013   8.5848   8.8469   9.4521   9.4822
     9.5888   9.6680  10.5949  10.6484  11.2484  11.3508  12.7390  12.9805
    13.6571  14.0434  14.1526  14.8722  16.0269  16.0897  16.1531  16.5655
    17.3451  17.4730  17.9515  18.3189  18.4603  19.2140  19.2463  19.6511
    20.2177  20.6979  21.0599  21.3808  21.7908  22.2130  22.7069  23.4517
    23.5618  23.8807  24.0830  24.3243  25.0415  25.1174  25.2354  25.4673
    25.9573  26.2586  26.4841  27.0210  27.0911  27.1491  27.6938  28.5057

          k = 0.5773-0.1334-0.0000 (  7950 PWs)   bands (ev):

   -14.6648 -14.6503  -7.6902  -7.6762  -2.9710  -2.9528  -1.7328  -1.7118
    -1.0751  -1.0587   0.3502   0.4439   1.4637   1.5523   1.8132   1.8874
     3.4503   3.5117   6.0444   6.1855   8.5368   8.8198   9.4254   9.4307
     9.6641   9.7308  10.5007  10.5299  11.2004  11.3408  12.8735  12.9641
    13.6866  14.0757  14.1682  14.8381  15.9806  16.0318  16.0776  16.6883
    17.4061  17.5677  17.8740  18.4477  18.5863  19.1961  19.3536  19.6600
    20.1991  20.8293  21.2122  21.3542  21.7501  22.1020  22.6309  23.3149
    23.5526  23.8412  23.9601  24.2284  24.9952  25.0985  25.1818  25.4068
    25.8116  26.1925  26.4049  27.0145  27.0497  27.2596  27.7089  28.5006

          k = 0.5773-0.1222-0.0000 (  7946 PWs)   bands (ev):

   -14.6679 -14.6534  -7.7034  -7.6894  -2.9935  -2.9752  -1.7631  -1.7419
    -1.0174  -1.0010   0.3385   0.4336   1.5003   1.6236   1.8957   1.9387
     3.4291   3.4917   6.0167   6.1670   8.4898   8.7886   9.3567   9.3797
     9.7510   9.7767  10.3884  10.4844  11.1732  11.3330  12.9442  13.0141
    13.7091  14.1204  14.1803  14.8014  15.9193  15.9596  15.9880  16.8020
    17.4546  17.6737  17.8225  18.5880  18.7239  19.1519  19.4946  19.6606
    20.1718  20.9607  21.3306  21.3551  21.7192  22.0109  22.5553  23.1673
    23.4766  23.8106  23.8484  24.1450  24.9474  25.0776  25.1398  25.3518
    25.6789  26.1329  26.3448  26.9355  27.0526  27.3719  27.7308  28.4900

          k = 0.5773-0.1111-0.0000 (  7936 PWs)   bands (ev):

   -14.6708 -14.6564  -7.7157  -7.7018  -3.0142  -2.9959  -1.7908  -1.7695
    -0.9627  -0.9462   0.3273   0.4236   1.5147   1.6617   1.9969   2.0216
     3.4093   3.4729   5.9876   6.1466   8.4439   8.7542   9.2823   9.3216
     9.7826   9.8056  10.3325  10.4870  11.1587  11.3259  12.9213  13.1583
    13.7224  14.1708  14.1967  14.7617  15.8353  15.8785  15.8971  16.9042
    17.4764  17.7920  17.8118  18.7284  18.8712  19.1206  19.6343  19.6542
    20.1357  21.0871  21.3137  21.4692  21.6958  21.9523  22.4858  23.0149
    23.3579  23.6563  23.8766  24.0549  24.9032  25.0401  25.1095  25.3101
    25.5652  26.0794  26.3018  26.8468  27.0485  27.4810  27.7336  28.4917

          k = 0.5773-0.1000-0.0000 (  7942 PWs)   bands (ev):

   -14.6736 -14.6591  -7.7271  -7.7132  -3.0330  -3.0147  -1.8160  -1.7946
    -0.9113  -0.8948   0.3167   0.4142   1.5178   1.6776   2.1052   2.1234
     3.3910   3.4556   5.9577   6.1247   8.3989   8.7170   9.2055   9.2597
     9.7512   9.8006  10.3572  10.5384  11.1518  11.3191  12.8941  13.3052
    13.7267  14.1881  14.2547  14.7185  15.7358  15.7714  15.8255  16.9935
    17.4683  17.8422  17.9230  18.8486  19.0263  19.1169  19.6393  19.7758
    20.0927  21.1981  21.2932  21.5480  21.6739  21.9419  22.4289  22.8642
    23.2243  23.5028  23.9066  23.9508  24.8659  24.9750  25.0908  25.2808
    25.4820  26.0311  26.2728  26.7548  27.0378  27.5864  27.6954  28.5268

          k = 0.5773-0.0889-0.0000 (  7954 PWs)   bands (ev):

   -14.6761 -14.6616  -7.7376  -7.7236  -3.0499  -3.0316  -1.8386  -1.8172
    -0.8637  -0.8473   0.3068   0.4053   1.5157   1.6826   2.2139   2.2304
     3.3743   3.4399   5.9279   6.1023   8.3550   8.6767   9.1282   9.1967
     9.6991   9.7534  10.4447  10.6217  11.1502  11.3124  12.8622  13.4533
    13.7238  14.1936  14.3303  14.6711  15.6316  15.6574  15.7541  17.0693
    17.4440  17.8996  18.0620  18.9150  19.1649  19.1876  19.6311  19.9108
    20.0458  21.2644  21.2782  21.6030  21.6443  21.9751  22.3893  22.7247
    23.0930  23.3558  23.8327  23.9277  24.8373  24.8868  25.0822  25.2438
    25.4448  25.9876  26.2551  26.6630  27.0210  27.6118  27.6920  28.6021

          k = 0.5773-0.0778-0.0000 (  7976 PWs)   bands (ev):

   -14.6784 -14.6639  -7.7469  -7.7330  -3.0650  -3.0465  -1.8587  -1.8372
    -0.8205  -0.8040   0.2978   0.3972   1.5113   1.6827   2.3188   2.3350
     3.3593   3.4258   5.8988   6.0798   8.3122   8.6335   9.0528   9.1353
     9.6420   9.6945  10.5617  10.7196  11.1529  11.3060  12.8255  13.6006
    13.7155  14.1984  14.4100  14.6197  15.5291  15.5424  15.6807  17.1316
    17.4161  17.9675  18.2068  18.9310  19.2421  19.3532  19.6459  19.9979
    20.0387  21.2335  21.3051  21.5996  21.6683  22.0149  22.3639  22.6126
    22.9799  23.2189  23.7040  23.9361  24.7844  24.8193  25.0815  25.1944
    25.4483  25.9484  26.2472  26.5747  26.9960  27.5056  27.7925  28.7085

          k = 0.5773-0.0667-0.0000 (  7970 PWs)   bands (ev):

   -14.6804 -14.6659  -7.7552  -7.7412  -3.0780  -3.0596  -1.8761  -1.8545
    -0.7819  -0.7655   0.2896   0.3899   1.5061   1.6807   2.4166   2.4327
     3.3462   3.4134   5.8713   6.0581   8.2711   8.5880   8.9819   9.0790
     9.5886   9.6392  10.6886  10.8188  11.1606  11.3002  12.7839  13.7038
    13.7443  14.2051  14.4890  14.5654  15.4269  15.4346  15.6072  17.1808
    17.3902  18.0370  18.3534  18.9313  19.2904  19.5213  19.7032  19.9558
    20.1553  21.1928  21.3009  21.5386  21.7351  22.0328  22.3378  22.5487
    22.9043  23.0954  23.5690  23.9312  24.6779  24.8102  25.0867  25.1468
    25.4697  25.9132  26.2478  26.4928  26.9583  27.3952  27.8915  28.8334

          k = 0.5773-0.0556-0.0000 (  7976 PWs)   bands (ev):

   -14.6821 -14.6676  -7.7622  -7.7483  -3.0891  -3.0706  -1.8909  -1.8692
    -0.7485  -0.7321   0.2825   0.3835   1.5009   1.6779   2.5045   2.5206
     3.3349   3.4028   5.8461   6.0379   8.2324   8.5419   8.9184   9.0302
     9.5426   9.5925  10.8150  10.9086  11.1755  11.2951  12.7382  13.6906
    13.8784  14.2184  14.5089  14.5656  15.3150  15.3474  15.5371  17.2178
    17.3683  18.1029  18.4975  18.9306  19.2987  19.6892  19.7678  19.9529
    20.2566  21.1433  21.2880  21.4655  21.7480  22.0552  22.2935  22.5368
    22.8817  22.9886  23.4321  23.9140  24.5718  24.8112  25.0954  25.1084
    25.4944  25.8823  26.2557  26.4199  26.9018  27.3008  27.9869  28.8729

          k = 0.5773-0.0445-0.0000 (  7972 PWs)   bands (ev):

   -14.6835 -14.6691  -7.7681  -7.7541  -3.0982  -3.0797  -1.9030  -1.8813
    -0.7205  -0.7041   0.2766   0.3781   1.4963   1.6750   2.5802   2.5963
     3.3255   3.3940   5.8240   6.0200   8.1973   8.4978   8.8646   8.9907
     9.5052   9.5554  10.9329  10.9797  11.2011  11.2911  12.6904  13.6773
    13.9904  14.2476  14.4592  14.6333  15.2024  15.2728  15.4746  17.2440
    17.3508  18.1617  18.6332  18.9329  19.2903  19.7529  19.8552  20.0498
    20.3377  21.0835  21.2797  21.3873  21.6783  22.1203  22.2308  22.5546
    22.9012  22.9082  23.2975  23.8866  24.4724  24.8209  25.0801  25.1061
    25.5160  25.8557  26.2684  26.3589  26.8265  27.2338  28.0757  28.8463

          k = 0.5773-0.0333-0.0000 (  7974 PWs)   bands (ev):

   -14.6847 -14.6702  -7.7726  -7.7587  -3.1053  -3.0868  -1.9124  -1.8907
    -0.6984  -0.6820   0.2718   0.3738   1.4925   1.6725   2.6415   2.6577
     3.3182   3.3871   5.8059   6.0052   8.1675   8.4589   8.8219   8.9606
     9.4765   9.5274  11.0194  11.0424  11.2372  11.2886  12.6438  13.6653
    14.0617  14.2965  14.4328  14.6913  15.0874  15.2122  15.4234  17.2613
    17.3375  18.2106  18.7520  18.9379  19.2875  19.6918  20.0126  20.1968
    20.3943  21.0099  21.2801  21.3128  21.5697  22.1615  22.2052  22.5825
    22.8361  22.9629  23.1694  23.8521  24.3859  24.8365  25.0608  25.1170
    25.5320  25.8338  26.2762  26.3179  26.7434  27.1925  28.1536  28.8174

          k = 0.5773-0.0222-0.0000 (  7990 PWs)   bands (ev):

   -14.6855 -14.6710  -7.7759  -7.7620  -3.1104  -3.0918  -1.9191  -1.8974
    -0.6825  -0.6661   0.2684   0.3707   1.4897   1.6706   2.6867   2.7029
     3.3129   3.3822   5.7923   5.9940   8.1445   8.4285   8.7911   8.9398
     9.4562   9.5079  11.0466  11.1212  11.2726  11.2903  12.6035  13.6559
    14.0934  14.3145  14.4832  14.7361  14.9684  15.1670  15.3860  17.2717
    17.3284  18.2472  18.8430  18.9431  19.3076  19.6136  20.1555  20.3539
    20.4229  20.9179  21.2513  21.2878  21.4614  22.1075  22.2747  22.6166
    22.7927  23.0241  23.0536  23.8155  24.3189  24.8537  25.0486  25.1266
    25.5424  25.8172  26.2578  26.3160  26.6695  27.1690  28.2150  28.7932

          k = 0.5773-0.0111-0.0000 (  7986 PWs)   bands (ev):

   -14.6860 -14.6715  -7.7779  -7.7639  -3.1134  -3.0949  -1.9232  -1.9014
    -0.6728  -0.6564   0.2663   0.3688   1.4879   1.6694   2.7144   2.7306
     3.3097   3.3792   5.7840   5.9870   8.1301   8.4092   8.7727   8.9275
     9.4442   9.4965  11.0583  11.1726  11.2843  11.3074  12.5756  13.6499
    14.1050  14.3024  14.5939  14.7648  14.8453  15.1387  15.3634  17.2770
    17.3230  18.2699  18.9003  18.9428  19.3598  19.5267  20.2723  20.4204
    20.5075  20.8065  21.2122  21.2970  21.3797  22.0719  22.3189  22.6582
    22.7673  22.9596  23.0733  23.7855  24.2766  24.8670  25.0420  25.1333
    25.5479  25.8067  26.2378  26.3253  26.6190  27.1570  28.2544  28.7779

          k = 0.5773 0.0000-0.0000 (  7990 PWs)   bands (ev):

   -14.6861 -14.6717  -7.7786  -7.7646  -3.1144  -3.0959  -1.9245  -1.9028
    -0.6695  -0.6531   0.2656   0.3682   1.4873   1.6690   2.7237   2.7400
     3.3086   3.3782   5.7811   5.9847   8.1251   8.4025   8.7665   8.9235
     9.4402   9.4927  11.0617  11.1900  11.2859  11.3168  12.5656  13.6478
    14.1078  14.2961  14.7117  14.7260  14.7752  15.1290  15.3558  17.2787
    17.3212  18.2776  18.9286  18.9324  19.4317  19.4443  20.3326  20.4010
    20.6166  20.7115  21.1988  21.3024  21.3476  22.0597  22.3332  22.6843
    22.7570  22.9186  23.0920  23.7735  24.2622  24.8720  25.0399  25.1358
    25.5497  25.8031  26.2307  26.3293  26.6011  27.1533  28.2679  28.7727

          k = 0.5581 0.0000-0.0000 (  7982 PWs)   bands (ev):

   -14.6877 -14.6733  -7.7868  -7.7728  -3.1089  -3.0904  -1.9101  -1.8884
    -0.6682  -0.6518   0.2573   0.3611   1.4752   1.6585   2.7268   2.7431
     3.3178   3.3879   5.7896   5.9936   8.1310   8.4055   8.7723   8.9333
     9.4387   9.4945  11.0600  11.1695  11.2894  11.3202  12.5832  13.6570
    14.0839  14.2940  14.7129  14.7535  14.7757  15.1352  15.3686  17.2679
    17.3265  18.2689  18.9198  18.9300  19.4334  19.4343  20.2648  20.3923
    20.5876  20.6515  21.1890  21.2869  21.2899  22.0507  22.3411  22.7454
    22.7545  22.9699  23.1613  23.7915  24.3148  24.8402  25.0231  25.1765
    25.5554  25.8083  26.2266  26.3525  26.5879  27.2034  28.2585  28.7454

          k = 0.5388 0.0000-0.0000 (  7984 PWs)   bands (ev):

   -14.6925 -14.6781  -7.8111  -7.7971  -3.0922  -3.0739  -1.8671  -1.8457
    -0.6643  -0.6478   0.2327   0.3400   1.4404   1.6286   2.7361   2.7523
     3.3432   3.4153   5.8156   6.0210   8.1477   8.4141   8.7895   8.9625
     9.4343   9.4998  11.0550  11.1131  11.2998  11.3304  12.6305  13.6861
    14.0180  14.2952  14.7167  14.7773  14.8212  15.1532  15.4075  17.2364
    17.3428  18.2426  18.8817  18.9320  19.3959  19.4407  20.0759  20.3565
    20.4997  20.5013  21.1442  21.1696  21.2563  22.0376  22.3628  22.7210
    22.9318  23.0905  23.3429  23.8396  24.4611  24.7828  24.9799  25.2613
    25.5734  25.8107  26.2188  26.4163  26.5844  27.3241  28.2293  28.6662

          k = 0.5196 0.0000-0.0000 (  7979 PWs)   bands (ev):

   -14.7005 -14.6860  -7.8506  -7.8366  -3.0648  -3.0467  -1.7967  -1.7756
    -0.6577  -0.6413   0.1929   0.3056   1.3869   1.5827   2.7515   2.7677
     3.3796   3.4554   5.8605   6.0679   8.1729   8.4274   8.8184   9.0106
     9.4279   9.5089  11.0207  11.0588  11.3169  11.3473  12.6949  13.7395
    13.9256  14.3040  14.7225  14.7797  14.9062  15.1823  15.4734  17.1864
    17.3713  18.1990  18.8160  18.9284  19.3179  19.4456  19.8009  20.2641
    20.3180  20.3641  21.0014  21.1361  21.2298  22.0440  22.3918  22.6932
    23.1535  23.2324  23.5792  23.9070  24.6710  24.7387  24.9308  25.3532
    25.6069  25.7788  26.2290  26.5076  26.6364  27.4723  28.1780  28.5446

          k = 0.5004 0.0000-0.0000 (  7967 PWs)   bands (ev):

   -14.7114 -14.6969  -7.9041  -7.8900  -3.0268  -3.0090  -1.7006  -1.6801
    -0.6486  -0.6322   0.1395   0.2589   1.3196   1.5256   2.7729   2.7892
     3.4202   3.5020   5.9261   6.1358   8.2023   8.4439   8.8588   9.0764
     9.4216   9.5222  10.9225  11.0551  11.3408  11.3707  12.7630  13.8125
    13.8299  14.3166  14.7301  14.7824  14.9954  15.2210  15.5656  17.1214
    17.4121  18.1383  18.7174  18.9075  19.1832  19.4377  19.4758  20.0864
    20.1664  20.1992  20.9115  21.1194  21.2114  22.0799  22.4139  22.6747
    23.3640  23.3665  23.8034  23.9846  24.7234  24.9064  24.9105  25.4395
    25.6591  25.7051  26.2694  26.6124  26.7572  27.6196  28.1010  28.3957

          k = 0.4811 0.0000-0.0000 (  7963 PWs)   bands (ev):

   -14.7252 -14.7107  -7.9697  -7.9556  -2.9787  -2.9612  -1.5815  -1.5616
    -0.6371  -0.6206   0.0749   0.2016   1.2436   1.4614   2.8003   2.8166
     3.4582   3.5486   6.0141   6.2261   8.2298   8.4614   8.9107   9.1585
     9.4192   9.5409  10.8136  11.0611  11.3713  11.4006  12.8258  13.7086
    13.9378  14.3292  14.7386  14.7848  15.0855  15.2677  15.6802  17.0455
    17.4636  18.0600  18.5727  18.8511  18.9997  19.1267  19.3982  19.8398
    20.0531  20.0756  20.8846  21.1297  21.1994  22.1422  22.4073  22.6857
    23.4695  23.5361  23.9419  24.0634  24.7346  24.9683  25.1270  25.5211
    25.5898  25.7621  26.3235  26.7200  26.9401  27.7443  27.9943  28.2378

          k = 0.4619 0.0000-0.0000 (  7973 PWs)   bands (ev):

   -14.7417 -14.7272  -8.0457  -8.0316  -2.9210  -2.9037  -1.4425  -1.4236
    -0.6232  -0.6067   0.0029   0.1364   1.1631   1.3936   2.8336   2.8498
     3.4883   3.5902   6.1255   6.3397   8.2480   8.4774   8.9737   9.2538
     9.4261   9.5671  10.7034  11.0771  11.4080  11.4366  12.8809  13.5956
    14.0833  14.3399  14.7471  14.7860  15.1773  15.3199  15.8106  16.9625
    17.5196  17.9619  18.3614  18.7334  18.7699  18.8134  19.3193  19.5695
    19.9723  20.0400  20.8942  21.1740  21.1916  22.2234  22.3664  22.7293
    23.5440  23.6504  23.9539  24.1326  24.7450  25.1229  25.2984  25.4756
    25.6107  25.9032  26.3754  26.8245  27.1634  27.8136  27.8659  28.0895

          k = 0.4426 0.0000-0.0000 (  7981 PWs)   bands (ev):

   -14.7607 -14.7462  -8.1300  -8.1159  -2.8543  -2.8372  -1.2884  -1.2710
    -0.6070  -0.5905  -0.0714   0.0673   1.0812   1.3245   2.8725   2.8888
     3.5068   3.6232   6.2599   6.4760   8.2495   8.4887   9.0475   9.3576
     9.4495   9.6052  10.5976  11.1053  11.4507  11.4786  12.9305  13.4813
    14.2534  14.3506  14.7544  14.7851  15.2724  15.3746  15.9488  16.8761
    17.5664  17.8361  18.0826  18.4320  18.5374  18.6475  19.2270  19.3196
    19.9600  20.0421  20.9190  21.1861  21.2543  22.3048  22.3173  22.7865
    23.5901  23.7187  23.8677  24.1813  24.7149  25.3229  25.3555  25.4174
    25.7205  26.0749  26.4166  26.9243  27.3843  27.6659  27.8546  27.9684

          k = 0.4234 0.0000-0.0000 (  7999 PWs)   bands (ev):

   -14.7818 -14.7673  -8.2209  -8.2067  -2.7792  -2.7622  -1.1267  -1.1113
    -0.5888  -0.5723  -0.1396   0.0007   1.0003   1.2559   2.9170   2.9332
     3.5120   3.6455   6.4157   6.6329   8.2289   8.4921   9.1314   9.4605
     9.4953   9.6637  10.5013  11.1466  11.4991  11.5260  12.9793  13.3657
    14.3521  14.4527  14.7588  14.7807  15.3706  15.4277  16.0853  16.7897
    17.5819  17.6603  17.7629  18.1387  18.2796  18.5039  19.1213  19.1556
    19.9906  20.0685  20.9457  21.1813  21.3691  22.2399  22.4139  22.8377
    23.6147  23.7179  23.7641  24.1988  24.6249  25.2436  25.4846  25.5055
    25.8434  26.2306  26.4372  27.0158  27.4422  27.5108  27.7757  27.8176

          k = 0.4041 0.0000-0.0000 (  8001 PWs)   bands (ev):

   -14.8049 -14.7904  -8.3164  -8.3022  -2.6966  -2.6797  -0.9730  -0.9562
    -0.5686  -0.5521  -0.1858  -0.0524   0.9225   1.1892   2.9666   2.9829
     3.5039   3.6566   6.5894   6.8065   8.1859   8.4849   9.2248   9.5510
     9.5664   9.7521  10.4206  11.2013  11.5525  11.5784  13.0314  13.2492
    14.3670  14.6551  14.7582  14.7715  15.4609  15.4810  16.2060  16.7058
    17.4076  17.4290  17.5472  17.9236  17.9948  18.3725  19.0356  19.0842
    20.0444  20.1112  20.9639  21.1753  21.5150  22.1787  22.5099  22.8667
    23.5396  23.6267  23.7870  24.1774  24.4836  25.1314  25.5123  25.6342
    25.9560  26.3117  26.4188  27.0810  27.1879  27.3716  27.5696  27.6357

          k = 0.3849 0.0000-0.0000 (  8016 PWs)   bands (ev):

   -14.8296 -14.8151  -8.4150  -8.4007  -2.6075  -2.5905  -0.8606  -0.8229
    -0.5466  -0.5301  -0.1813  -0.0721   0.8502   1.1258   3.0213   3.0376
     3.4833   3.6569   6.7758   6.9888   8.1270   8.4662   9.3275   9.6279
     9.6614   9.8650  10.3652  11.2686  11.6104  11.6353  13.0862  13.1357
    14.3876  14.7493  14.7567  14.8647  15.4942  15.5671  16.2890  16.6245
    17.0820  17.1113  17.4793  17.7170  17.7739  18.2506  19.0145  19.0696
    20.1108  20.1651  20.9643  21.1654  21.6872  22.1307  22.5977  22.8618
    23.3341  23.6306  23.8025  24.1136  24.3129  25.0200  25.4893  25.6999
    26.0369  26.2344  26.3210  26.9548  27.0672  27.0925  27.3990  27.5071

          k = 0.3656 0.0000-0.0000 (  7997 PWs)   bands (ev):

   -14.8557 -14.8411  -8.5151  -8.5008  -2.5130  -2.4958  -0.8191  -0.7415
    -0.5231  -0.5066  -0.0974  -0.0313   0.7878   1.0677   3.0807   3.0969
     3.4517   3.6475   6.9673   7.1647   8.0687   8.4385   9.4398   9.6976
     9.7764   9.9778  10.3549  11.3477  11.6720  11.6958  13.0078  13.1636
    14.4189  14.7273  14.7365  15.0701  15.4923  15.6341  16.3137  16.5413
    16.7482  16.7916  17.4381  17.4806  17.6593  18.1385  18.9653  19.1827
    20.1833  20.2266  20.9390  21.1481  21.8802  22.1034  22.6698  22.8189
    23.1116  23.6223  23.7997  24.0097  24.1434  24.9063  25.4024  25.7109
    25.9442  26.0751  26.0954  26.7896  26.8367  27.0495  27.3064  27.3784

          k = 0.3464 0.0000-0.0000 (  8009 PWs)   bands (ev):

   -14.8827 -14.8682  -8.6154  -8.6012  -2.4147  -2.3973  -0.8396  -0.7261
    -0.4983  -0.4818   0.0542   0.0745   0.7449   1.0191   3.1443   3.1606
     3.4107   3.6296   7.1524   7.3011   8.0459   8.4096   9.5613   9.7592
     9.9065  10.0633  10.4184  11.4372  11.7363  11.7589  12.8891  13.2418
    14.4638  14.6916  14.7055  15.2414  15.4677  15.6307  16.3048  16.4256
    16.4482  16.4778  17.3214  17.4715  17.5663  18.0377  18.9242  19.3579
    20.2568  20.2922  20.8842  21.1191  22.0733  22.1140  22.7157  22.7444
    22.8796  23.5911  23.7417  23.8743  24.0281  24.7732  25.2435  25.5318
    25.6793  25.7827  26.0696  26.5809  26.7634  26.9748  27.2457  27.2881

          k = 0.3272 0.0000-0.0000 (  8019 PWs)   bands (ev):

   -14.9105 -14.8959  -8.7149  -8.7006  -2.3147  -2.2971  -0.8907  -0.7553
    -0.4724  -0.4558   0.1947   0.2402   0.7461   0.9894   3.2119   3.2281
     3.3620   3.6045   7.3119   7.3491   8.1097   8.3961   9.6913   9.8022
    10.0471  10.1339  10.5530  11.5357  11.8021  11.8235  12.7713  13.3302
    14.5231  14.6417  14.6581  15.2354  15.5059  15.5434  16.1206  16.1805
    16.3284  16.3554  17.2606  17.4914  17.5741  17.9500  18.8977  19.5668
    20.3255  20.3577  20.8028  21.0734  22.1072  22.3095  22.6363  22.6459
    22.7380  23.5293  23.6107  23.7222  23.9968  24.5709  24.9835  25.1184
    25.5092  25.6130  26.0265  26.3597  26.7112  26.8901  27.1462  27.2545

          k = 0.3079 0.0000-0.0000 (  8015 PWs)   bands (ev):

   -14.9386 -14.9241  -8.8124  -8.7981  -2.2156  -2.1979  -0.9498  -0.8026
    -0.4457  -0.4291   0.2701   0.4087   0.8334   1.0022   3.2829   3.2991
     3.3071   3.5733   7.2980   7.4215   8.2699   8.4228   9.8212   9.8290
    10.1947  10.2249  10.7274  11.6409  11.8677  11.8881  12.6579  13.4267
    14.5749  14.5899  14.5939  15.0607  15.2829  15.6988  15.8392  15.9081
    16.2521  16.4369  17.2874  17.4341  17.7172  17.8765  18.8907  19.7852
    20.3826  20.4174  20.7080  21.0060  22.1243  22.4199  22.4929  22.5457
    22.7207  23.4401  23.4614  23.5712  24.0023  24.2531  24.5580  24.8226
    25.3544  25.5157  25.9562  26.1204  26.6365  26.8105  27.0283  27.1892

          k = 0.2887 0.0000-0.0000 (  8027 PWs)   bands (ev):

   -14.9668 -14.9523  -8.9072  -8.8928  -2.1213  -2.1038  -1.0036  -0.8513
    -0.4184  -0.4018   0.2761   0.5131   1.0129   1.0978   3.2475   3.3567
     3.3729   3.5371   7.1900   7.4573   8.4869   8.5097   9.8271   9.9713
    10.3425  10.3483  10.9218  11.7491  11.9312  11.9507  12.5538  13.5281
    14.4878  14.4973  14.6540  14.8167  15.0335  15.5884  15.6678  15.8390
    16.1947  16.5722  17.3750  17.3945  17.8174  17.8774  18.9086  19.9744
    20.4193  20.4631  20.6338  20.9134  22.1036  22.2135  22.4222  22.6229
    22.7464  23.3280  23.3357  23.4408  23.8523  24.0133  24.1100  24.5449
    25.2711  25.3894  25.8718  25.8965  26.4930  26.7455  26.8768  27.1373

          k = 0.2694 0.0000-0.0000 (  8013 PWs)   bands (ev):

   -14.9948 -14.9802  -8.9985  -8.9841  -2.0374  -2.0196  -1.0422  -0.8905
    -0.3909  -0.3743   0.2442   0.5399   1.2453   1.2840   3.1844   3.4327
     3.4490   3.4967   7.0549   7.4242   8.6482   8.7316   9.8342  10.1158
    10.4850  10.5023  11.1273  11.8513  11.9902  12.0090  12.4684  13.6293
    14.3776  14.3795  14.5381  14.5656  14.9303  15.3746  15.4653  15.9317
    16.1907  16.7294  17.3719  17.4996  17.7721  18.0377  18.9566  20.0561
    20.4262  20.4834  20.6550  20.7946  21.9948  22.0415  22.3986  22.5444
    22.8274  23.2182  23.2206  23.3428  23.4375  23.7283  24.0176  24.2685
    25.1467  25.2373  25.7550  25.7875  26.2923  26.6995  26.7017  27.1380

          k = 0.2502 0.0000-0.0000 (  8009 PWs)   bands (ev):

   -15.0222 -15.0076  -9.0856  -9.0712  -1.9718  -1.9500  -1.0569  -0.9119
    -0.3634  -0.3468   0.1979   0.5236   1.5022   1.5227   3.1192   3.4531
     3.5103   3.5266   6.9075   7.3443   8.8118   8.9869   9.8558  10.2578
    10.6423  10.6599  11.3387  11.9280  12.0417  12.0601  12.4206  13.7172
    14.2378  14.2477  14.2580  14.3017  15.0187  15.2018  15.3024  15.9692
    16.2411  16.8988  17.3646  17.6444  17.7388  18.1833  19.0379  20.0028
    20.3937  20.4656  20.6523  20.7947  21.8236  21.9197  22.4128  22.4344
    22.7424  22.9363  23.1391  23.1655  23.2084  23.6001  24.0087  24.0201
    24.9227  25.0649  25.7170  25.7228  26.0868  26.5334  26.6722  27.1310

          k = 0.2309 0.0000-0.0000 (  8031 PWs)   bands (ev):

   -15.0488 -15.0342  -9.1680  -9.1535  -1.9315  -1.8989  -1.0411  -0.9093
    -0.3363  -0.3196   0.1470   0.4904   1.7694   1.7851   3.0535   3.4069
     3.5887   3.6049   6.7553   7.2377   8.9699   9.2456   9.9056  10.3922
    10.8092  10.8208  11.5511  11.9523  12.0823  12.1005  12.4324  13.7282
    14.0195  14.0556  14.0833  14.1019  15.0693  15.1564  15.1763  15.9869
    16.3056  17.0734  17.3702  17.7149  17.7992  18.2978  19.1513  19.8987
    20.3174  20.4023  20.4925  20.9509  21.6453  21.8584  22.2656  22.3847
    22.5209  22.5906  22.9464  23.0765  23.1510  23.5553  23.9307  23.9852
    24.6415  24.8789  25.6715  25.7332  25.9135  26.4066  26.6605  27.0160

          k = 0.2117 0.0000-0.0000 (  8023 PWs)   bands (ev):

   -15.0743 -15.0597  -9.2452  -9.2307  -1.9181  -1.8693  -0.9937  -0.8793
    -0.3098  -0.2932   0.0957   0.4512   2.0382   2.0573   2.9901   3.3591
     3.6669   3.6831   6.6030   7.1174   9.0981   9.5017   9.9966  10.5142
    10.9766  10.9863  11.7582  11.9266  12.1082  12.1266  12.4885  13.5489
    13.7771  13.9266  13.9520  14.0510  14.9727  15.0821  15.3136  16.0091
    16.3565  17.2446  17.3851  17.6966  17.9596  18.3649  19.2869  19.8040
    20.2060  20.2981  20.3234  20.9997  21.5256  21.8554  21.9708  22.0910
    22.3165  22.5367  22.8080  23.0215  23.1387  23.3434  23.9517  24.0607
    24.3465  24.6863  25.6570  25.7246  25.7935  26.3505  26.6599  26.7984

          k = 0.1924 0.0000-0.0000 (  8031 PWs)   bands (ev):

   -15.0985 -15.0838  -9.3168  -9.3023  -1.9266  -1.8606  -0.9197  -0.8237
    -0.2844  -0.2677   0.0461   0.4107   2.2980   2.3310   2.9358   3.3109
     3.7440   3.7602   6.4539   6.9915   9.1848   9.7505  10.1330  10.6210
    11.1329  11.1518  11.8792  11.9541  12.1163  12.1350  12.5311  13.3165
    13.6152  13.7784  13.8089  14.1296  14.9067  15.0151  15.4822  16.0381
    16.3894  17.3976  17.4049  17.6797  18.1250  18.3804  19.4174  19.7417
    20.0880  20.1503  20.1721  20.8752  21.4314  21.6080  21.8385  21.8972
    22.1076  22.5873  22.7404  22.9607  23.1091  23.1457  23.9192  24.0684
    24.2231  24.4942  25.6737  25.6813  25.7396  26.3637  26.5373  26.6651

          k = 0.1732 0.0000-0.0000 (  8033 PWs)   bands (ev):

   -15.1210 -15.1064  -9.3825  -9.3680  -1.9495  -1.8682  -0.8272  -0.7479
    -0.2602  -0.2435  -0.0005   0.3711   2.5198   2.5992   2.9166   3.2650
     3.8190   3.8352   6.3105   6.8656   9.2340   9.9865  10.3049  10.7123
    11.2640  11.2980  11.8400  12.1041  12.1213  12.1233  12.5119  13.1266
    13.5812  13.6470  13.6812  14.2221  14.8673  14.9720  15.6561  16.0611
    16.4158  17.4248  17.5038  17.6593  18.2949  18.3716  19.4793  19.7016
    19.9871  20.0266  20.0368  20.6597  21.2104  21.2417  21.7747  21.8780
    21.9676  22.6274  22.6887  22.8824  22.9786  23.1263  23.8529  23.9004
    24.3094  24.3490  25.6237  25.7172  25.7591  26.2646  26.4197  26.6702

          k = 0.1540 0.0000-0.0000 (  8035 PWs)   bands (ev):

   -15.1418 -15.1272  -9.4420  -9.4275  -1.9802  -1.8866  -0.7241  -0.6592
    -0.2376  -0.2209  -0.0436   0.3338   2.6221   2.8490   3.0107   3.2309
     3.8907   3.9070   6.1752   6.7436   9.2573  10.2029  10.4947  10.7903
    11.3438  11.3974  11.8140  12.0720  12.0916  12.2545  12.4550  13.0241
    13.5364  13.5732  13.6720  14.3197  14.8515  14.9504  15.8282  16.0528
    16.4606  17.4396  17.5236  17.6310  18.3956  18.4676  19.4141  19.6469
    19.8387  19.9100  20.0715  20.4031  20.8939  21.0036  21.6451  21.7540
    22.0523  22.4096  22.7816  22.7995  23.0036  23.0434  23.7583  23.9035
    24.1389  24.4093  25.5699  25.7812  25.8514  26.0269  26.4611  26.6675

          k = 0.1347 0.0000-0.0000 (  8037 PWs)   bands (ev):

   -15.1606 -15.1460  -9.4950  -9.4805  -2.0136  -1.9106  -0.6172  -0.5643
    -0.2169  -0.2001  -0.0824   0.2994   2.6071   3.0236   3.2118   3.2629
     3.9580   3.9743   6.0499   6.6287   9.2649  10.3889  10.6834  10.8592
    11.3572  11.4223  11.7807  12.0230  12.0431  12.3695  12.4459  13.0228
    13.4475  13.4857  13.8414  14.4232  14.8566  14.9481  15.9840  16.0001
    16.5408  17.4448  17.4495  17.5914  18.4835  18.6366  19.2767  19.5446
    19.7120  19.8013  20.0904  20.1697  20.5845  20.9041  21.4491  21.6981
    22.1393  22.1666  22.6616  22.7734  23.0311  23.0903  23.7840  23.9273
    23.9916  24.3878  25.5271  25.8380  25.8584  26.0127  26.4383  26.6468

          k = 0.1155 0.0000-0.0000 (  8043 PWs)   bands (ev):

   -15.1772 -15.1626  -9.5413  -9.5268  -2.0465  -1.9364  -0.5117  -0.4692
    -0.1983  -0.1816  -0.1166   0.2684   2.5583   3.0435   3.4274   3.4426
     4.0197   4.0359   5.9363   6.5235   9.2634  10.5284  10.8457  10.9233
    11.3225  11.3842  11.7234  11.9627  11.9832  12.5011  12.5279  13.0859
    13.3781  13.4167  14.0508  14.5344  14.8793  14.9622  15.8953  16.1203
    16.6511  17.3287  17.4370  17.5393  18.6096  18.7800  19.1424  19.3947
    19.6119  19.7161  19.8129  20.1182  20.3689  20.9037  21.3041  21.6095
    21.9604  22.2181  22.5308  22.5954  23.1413  23.1897  23.8669  23.8720
    23.9743  24.2848  25.4932  25.7380  25.9420  26.2054  26.3322  26.5959

          k = 0.0962 0.0000-0.0000 (  8035 PWs)   bands (ev):

   -15.1916 -15.1769  -9.5808  -9.5663  -2.0767  -1.9613  -0.4121  -0.3788
    -0.1822  -0.1654  -0.1459   0.2411   2.5038   3.0116   3.6359   3.6532
     4.0744   4.0907   5.8362   6.4301   9.2568  10.6044  10.9295  10.9752
    11.2806  11.3608  11.6707  11.8981  11.9188  12.6564  12.6703  13.1677
    13.3248  13.3631  14.2779  14.6533  14.9152  14.9889  15.7670  16.1964
    16.7781  17.2213  17.4155  17.4766  18.7289  18.8108  19.1158  19.2204
    19.5400  19.5530  19.6553  19.9219  20.2660  20.9590  21.1913  21.4933
    21.8487  22.2799  22.3989  22.4215  23.2450  23.2811  23.7824  23.9762
    24.0261  24.1237  25.4601  25.7190  26.0255  26.2213  26.4217  26.5079

          k = 0.0770 0.0000-0.0000 (  8035 PWs)   bands (ev):

   -15.2035 -15.1888  -9.6133  -9.5988  -2.1029  -1.9836  -0.3229  -0.2977
    -0.1697  -0.1686  -0.1518   0.2177   2.4519   2.9740   3.8260   3.8433
     4.1211   4.1374   5.7509   6.3507   9.2477  10.6136  10.8935  10.9923
    11.2751  11.4251  11.6470  11.8359  11.8567  12.8208  12.8331  13.2424
    13.2845  13.3220  14.5077  14.7752  14.9587  15.0233  15.6245  16.1907
    16.9098  17.1725  17.3828  17.4087  18.7036  18.7912  19.0444  19.2160
    19.3813  19.4945  19.6165  19.7103  20.1604  21.0242  21.0643  21.3681
    21.8687  22.2747  22.2795  22.3203  23.3175  23.3505  23.7347  23.9387
    24.0762  24.0811  25.4193  25.7646  26.1027  26.1651  26.3912  26.6370

          k = 0.0577 0.0000-0.0000 (  8023 PWs)   bands (ev):

   -15.2128 -15.1982  -9.6387  -9.6242  -2.1239  -2.0019  -0.2486  -0.2307
    -0.1863  -0.1579  -0.1411   0.1985   2.4070   2.9399   3.9857   4.0025
     4.1588   4.1750   5.6819   6.2867   9.2379  10.5741  10.8019  10.9847
    11.2989  11.5300  11.6550  11.7818  11.8026  12.9757  12.9909  13.2549
    13.2914  13.3003  14.7267  14.8910  15.0034  15.0595  15.4829  16.1090
    17.0339  17.1858  17.3387  17.3490  18.5864  18.7235  18.8987  19.3084
    19.3475  19.4702  19.5486  19.5949  20.0511  20.9119  21.0582  21.2877
    21.9826  22.1683  22.1699  22.3384  23.3114  23.4079  23.7196  23.8025
    24.1320  24.1432  25.3724  25.8503  26.1665  26.1676  26.2681  26.6154

          k = 0.0385 0.0000-0.0000 (  8013 PWs)   bands (ev):

   -15.2196 -15.2049  -9.6569  -9.6423  -2.1394  -2.0154  -0.2101  -0.1892
    -0.1707  -0.1501  -0.1333   0.1837   2.3723   2.9131   4.1068   4.1232
     4.1863   4.2025   5.6308   6.2397   9.2292  10.5179  10.7152  10.9761
    11.3200  11.6234  11.6828  11.7401  11.7609  13.1031  13.1253  13.2344
    13.2702  13.3394  14.9191  14.9885  15.0422  15.0913  15.3593  15.9925
    17.1377  17.2270  17.2846  17.3124  18.4878  18.5957  18.7946  19.2909
    19.3910  19.4601  19.5185  19.5847  19.9608  20.7860  20.9977  21.3045
    22.0859  22.0869  22.1339  22.3419  23.2072  23.4532  23.7254  23.7477
    24.1730  24.1835  25.3304  25.9485  26.1580  26.2025  26.2199  26.5450

          k = 0.0192 0.0000-0.0000 (  7999 PWs)   bands (ev):

   -15.2236 -15.2090  -9.6678  -9.6533  -2.1488  -2.0238  -0.2148  -0.1557
    -0.1453  -0.1389  -0.1285   0.1742   2.3503   2.8961   4.1826   4.1988
     4.2032   4.2194   5.5992   6.2110   9.2231  10.4735  10.6569  10.9714
    11.3306  11.6836  11.7112  11.7139  11.7347  13.1875  13.2182  13.2224
    13.2576  13.3606  15.0508  15.0657  15.0687  15.1131  15.2727  15.8884
    17.2075  17.2472  17.2632  17.2877  18.4214  18.4988  18.7295  19.2181
    19.4380  19.4575  19.5604  19.5810  19.9028  20.7020  20.9290  21.3468
    22.0335  22.0337  22.2723  22.3393  23.0736  23.4813  23.7372  23.7408
    24.1997  24.2025  25.3025  26.0280  26.0866  26.2413  26.2496  26.4934

          k = 0.0000 0.0000 0.0000 (  7991 PWs)   bands (ev):

   -15.2250 -15.2103  -9.6715  -9.6569  -2.1519  -2.0266  -0.2171  -0.1442
    -0.1438  -0.1274  -0.1270   0.1708   2.3428   2.8902   4.2084   4.2088
     4.2246   4.2251   5.5884   6.2013   9.2209  10.4570  10.6366  10.9700
    11.3336  11.7031  11.7050  11.7239  11.7258  13.2171  13.2184  13.2521
    13.2534  13.3668  15.0768  15.0782  15.1196  15.1209  15.2408  15.8444
    17.2322  17.2340  17.2769  17.2788  18.3972  18.4650  18.7072  19.1884
    19.4564  19.4572  19.5792  19.5801  19.8830  20.6726  20.9023  21.3650
    22.0140  22.0159  22.3354  22.3376  23.0091  23.4908  23.7421  23.7427
    24.2077  24.2089  25.2929  26.0590  26.0611  26.2574  26.2599  26.4745

     Writing all to output data dir ./work/Al2SO.save/
 
     init_run     :      0.32s CPU      0.36s WALL (       1 calls)
     electrons    :    199.00s CPU    261.66s WALL (       1 calls)

     Called by init_run:
     wfcinit      :      0.00s CPU      0.00s WALL (       1 calls)
     potinit      :      0.11s CPU      0.12s WALL (       1 calls)
     hinit0       :      0.15s CPU      0.17s WALL (       1 calls)

     Called by electrons:
     c_bands      :    199.00s CPU    261.66s WALL (       1 calls)
     v_of_rho     :      0.00s CPU      0.01s WALL (       1 calls)
     newd         :      0.04s CPU      0.05s WALL (       1 calls)
     PAW_pot      :      0.11s CPU      0.11s WALL (       1 calls)

     Called by c_bands:
     init_us_2    :      0.04s CPU      0.05s WALL (      91 calls)
     init_us_2:cp :      0.04s CPU      0.05s WALL (      91 calls)
     cegterg      :    194.94s CPU    255.87s WALL (     336 calls)

     Called by *egterg:
     cdiaghg      :     34.27s CPU     35.20s WALL (    6045 calls)
     h_psi        :    100.13s CPU    158.02s WALL (    6381 calls)
     s_psi        :      7.36s CPU      7.73s WALL (    6381 calls)
     g_psi        :      0.22s CPU      0.23s WALL (    5954 calls)

     Called by h_psi:
     h_psi:calbec :     10.69s CPU     14.16s WALL (    6381 calls)
     vloc_psi     :     78.42s CPU    131.71s WALL (    6381 calls)
     add_vuspsi   :     10.12s CPU     11.22s WALL (    6381 calls)

     General routines
     calbec       :     10.67s CPU     14.15s WALL (    6381 calls)
     fft          :      0.00s CPU      0.01s WALL (      12 calls)
     fftw         :     75.68s CPU    127.41s WALL (  468836 calls)
     davcio       :      0.06s CPU      0.08s WALL (     182 calls)
 
     Parallel routines
 
     PWSCF        :   3m20.59s CPU   4m24.94s WALL

 
   This run was terminated on:  12:10:21   7Mar2023            

=------------------------------------------------------------------------------=
   JOB DONE.
=------------------------------------------------------------------------------=
