
     Program PWSCF v.7.0 starts on 24Jun2023 at 14:47:11 

     This program is part of the open-source Quantum ESPRESSO suite
     for quantum simulation of materials; please cite
         "P. Giannozzi et al., J. Phys.:Condens. Matter 21 395502 (2009);
         "P. Giannozzi et al., J. Phys.:Condens. Matter 29 465901 (2017);
         "P. Giannozzi et al., J. Chem. Phys. 152 154105 (2020);
          URL http://www.quantum-espresso.org", 
     in publications or presentations arising from this work. More details at
     http://www.quantum-espresso.org/quote

     Parallel version (MPI), running on    10 processors

     MPI processes distributed on     1 nodes
     R & G space division:  proc/nbgrp/npool/nimage =      10
     27644 MiB available memory on the printing compute node when the environment starts
 
     Waiting for input...
     Reading input from standard input

     Current dimensions of program PWSCF are:
     Max number of different atomic species (ntypx) = 10
     Max number of k-points (npk) =  40000
     Max angular momentum in pseudopotentials (lmaxx) =  4
     Message from routine volume:
     axis vectors are left-handed
     file Al.pbe-n-kjpaw_psl.1.0.0.UPF: wavefunction(s)  3S 3P renormalized
     file S.pbe-n-kjpaw_psl.1.0.0.UPF: wavefunction(s)  3S 3P renormalized

     IMPORTANT: XC functional enforced from input :
     Exchange-correlation= VDW-DF2-B86R
                           (   1   4  26   0   2   0   0)
     Any further DFT definition will be discarded
     Please, verify this is what you really want

     Message from routine setup:
     using ibrav=0 with symmetry is DISCOURAGED, use correct ibrav instead

     Subspace diagonalization in iterative solution of the eigenvalue problem:
     a serial algorithm will be used

 
     Parallelization info
     --------------------
     sticks:   dense  smooth     PW     G-vecs:    dense   smooth      PW
     Min          62      62     19                 6354     6354    1121
     Max          63      63     20                 6363     6363    1138
     Sum         625     625    199                63573    63573   11349
 
     Using Slab Decomposition
 


     bravais-lattice index     =            0
     lattice parameter (alat)  =       6.1344  a.u.
     unit-cell volume          =    1014.0292 (a.u.)^3
     number of atoms/cell      =            8
     number of atomic types    =            2
     number of electrons       =        36.00
     number of Kohn-Sham states=           70
     kinetic-energy cutoff     =      60.0000  Ry
     charge density cutoff     =     240.0000  Ry
     scf convergence threshold =      1.0E-08
     mixing beta               =       0.5000
     number of iterations used =            8  plain     mixing
     Exchange-correlation= VDW-DF2-B86R
                           (   1   4  26   0   2   0   0)

     celldm(1)=   6.134387  celldm(2)=   0.000000  celldm(3)=   0.000000
     celldm(4)=   0.000000  celldm(5)=   0.000000  celldm(6)=   0.000000

     crystal axes: (cart. coord. in units of alat)
               a(1) = (   0.865734   0.500504   0.000000 )  
               a(2) = (   0.865734  -0.500504   0.000000 )  
               a(3) = (   0.000000   0.000000   5.068913 )  

     reciprocal axes: (cart. coord. in units 2 pi/alat)
               b(1) = (  0.577544  0.998993  0.000000 )  
               b(2) = (  0.577544 -0.998993  0.000000 )  
               b(3) = (  0.000000  0.000000  0.197281 )  


     PseudoPot. # 1 for Al read from file:
     /home/mainadmin/research/danu/pseudo/Al.pbe-n-kjpaw_psl.1.0.0.UPF
     MD5 check sum: 502b6b27b9c6270cab5dd1084b96fa6d
     Pseudo is Projector augmented-wave + core cor, Zval =  3.0
     Generated using &quot;atomic&quot; code by A. Dal Corso  v.6.3
     Shape of augmentation charge: PSQ
     Using radial grid of 1135 points,  6 beta functions with: 
                l(1) =   0
                l(2) =   0
                l(3) =   1
                l(4) =   1
                l(5) =   2
                l(6) =   2
     Q(r) pseudized with 0 coefficients 


     PseudoPot. # 2 for S  read from file:
     /home/mainadmin/research/danu/pseudo/S.pbe-n-kjpaw_psl.1.0.0.UPF
     MD5 check sum: fb45dfebcf3e72a4e1bd4a866ec2e262
     Pseudo is Projector augmented-wave + core cor, Zval =  6.0
     Generated using &quot;atomic&quot; code by A. Dal Corso  v.6.3
     Shape of augmentation charge: PSQ
     Using radial grid of 1151 points,  6 beta functions with: 
                l(1) =   0
                l(2) =   0
                l(3) =   1
                l(4) =   1
                l(5) =   2
                l(6) =   2
     Q(r) pseudized with 0 coefficients 


     atomic species   valence    mass     pseudopotential
        Al             3.00    26.98100     Al( 1.00)
        S              6.00    32.06500     S ( 1.00)

      2 Sym. Ops. (no inversion) found



   Cartesian axes

     site n.     atom                  positions (alat units)
         1           S   tau(   1) = (   1.1543123   0.0000000   0.0000000  )
         2           Al  tau(   2) = (   0.5771561   0.0000000   0.3771467  )
         3           Al  tau(   3) = (   0.5771561   0.0000000   1.1783904  )
         4           S   tau(   4) = (   1.1543123   0.0000000   1.5554814  )
         5           S   tau(   5) = (   0.5771561   0.0000000   2.5353827  )
         6           Al  tau(   6) = (   1.1543123   0.0000000   2.9124722  )
         7           Al  tau(   7) = (   1.1543123   0.0000000   3.7136612  )
         8           S   tau(   8) = (   0.5771561   0.0000000   4.0907070  )

     number of k points=   140

     Number of k-points >= 100: set verbosity='high' to print them.

     Dense  grid:    63573 G-vectors     FFT dimensions: (  32,  32, 160)

     Estimated max dynamical RAM per process >     146.35 MB

     Estimated total dynamical RAM >       1.43 GB

     Initial potential from superposition of free atoms

     starting charge      35.9907, renormalised to      36.0000


     %%%%%%%%%%%%%%%%%%%%%%%%%%%%%%%%%%%%%%%%%%%%%%%%%%%%%%%%%%%%%%%%%%%%%%%%
     %                                                                      %
     % You are using vdW-DF, which was implemented by the Thonhauser group. %
     % Please cite the following two papers that made this development      %
     % possible and the two reviews that describe the various versions:     %
     %                                                                      %
     %   T. Thonhauser et al., PRL 115, 136402 (2015).                      %
     %   T. Thonhauser et al., PRB 76, 125112 (2007).                       %
     %   K. Berland et al., Rep. Prog. Phys. 78, 066501 (2015).             %
     %   D.C. Langreth et al., J. Phys.: Condens. Matter 21, 084203 (2009). %
     %                                                                      %
     %                                                                      %
     % If you are calculating the stress with vdW-DF, please also cite:     %
     %                                                                      %
     %   R. Sabatini et al., J. Phys.: Condens. Matter 24, 424209 (2012).   %
     %                                                                      %
     %%%%%%%%%%%%%%%%%%%%%%%%%%%%%%%%%%%%%%%%%%%%%%%%%%%%%%%%%%%%%%%%%%%%%%%%


     Starting wfcs are   32 randomized atomic wfcs +   38 random wfcs
     Checking if some PAW data can be deallocated... 

     total cpu time spent up to now is       15.9 secs

     Self-consistent Calculation

     iteration #  1     ecut=    60.00 Ry     beta= 0.50
     Davidson diagonalization with overlap
     ethr =  1.00E-02,  avg # of iterations =  8.4

     Threshold (ethr) on eigenvalues was too large:
     Diagonalizing with lowered threshold

     Davidson diagonalization with overlap
     ethr =  9.43E-04,  avg # of iterations =  1.0

     total cpu time spent up to now is      127.7 secs

     total energy              =    -421.89151086 Ry
     estimated scf accuracy    <       0.33950391 Ry

     iteration #  2     ecut=    60.00 Ry     beta= 0.50
     Davidson diagonalization with overlap
     ethr =  9.43E-04,  avg # of iterations =  1.3

     total cpu time spent up to now is      158.0 secs

     total energy              =    -421.92513999 Ry
     estimated scf accuracy    <       0.06957129 Ry

     iteration #  3     ecut=    60.00 Ry     beta= 0.50
     Davidson diagonalization with overlap
     ethr =  1.93E-04,  avg # of iterations =  3.1

     total cpu time spent up to now is      194.2 secs

     total energy              =    -421.93576732 Ry
     estimated scf accuracy    <       0.08932051 Ry

     iteration #  4     ecut=    60.00 Ry     beta= 0.50
     Davidson diagonalization with overlap
     ethr =  1.93E-04,  avg # of iterations =  1.2

     total cpu time spent up to now is      224.1 secs

     total energy              =    -421.94890044 Ry
     estimated scf accuracy    <       0.00248250 Ry

     iteration #  5     ecut=    60.00 Ry     beta= 0.50
     Davidson diagonalization with overlap
     ethr =  6.90E-06,  avg # of iterations =  9.0

     total cpu time spent up to now is      271.9 secs

     total energy              =    -421.94884745 Ry
     estimated scf accuracy    <       0.00136444 Ry

     iteration #  6     ecut=    60.00 Ry     beta= 0.50
     Davidson diagonalization with overlap
     ethr =  3.79E-06,  avg # of iterations =  2.7

     total cpu time spent up to now is      305.9 secs

     total energy              =    -421.94902922 Ry
     estimated scf accuracy    <       0.00005651 Ry

     iteration #  7     ecut=    60.00 Ry     beta= 0.50
     Davidson diagonalization with overlap
     ethr =  1.57E-07,  avg # of iterations =  1.1

     total cpu time spent up to now is      335.7 secs

     total energy              =    -421.94903541 Ry
     estimated scf accuracy    <       0.00000188 Ry

     iteration #  8     ecut=    60.00 Ry     beta= 0.50
     Davidson diagonalization with overlap
     ethr =  5.21E-09,  avg # of iterations =  1.0

     total cpu time spent up to now is      365.4 secs

     total energy              =    -421.94903561 Ry
     estimated scf accuracy    <       0.00000156 Ry

     iteration #  9     ecut=    60.00 Ry     beta= 0.50
     Davidson diagonalization with overlap
     ethr =  4.33E-09,  avg # of iterations =  1.1

     total cpu time spent up to now is      395.2 secs

     total energy              =    -421.94903586 Ry
     estimated scf accuracy    <       0.00000005 Ry

     iteration # 10     ecut=    60.00 Ry     beta= 0.50
     Davidson diagonalization with overlap
     ethr =  1.44E-10,  avg # of iterations =  1.0

     total cpu time spent up to now is      424.8 secs

     End of self-consistent calculation

     Number of k-points >= 100: set verbosity='high' to print the bands.

     highest occupied, lowest unoccupied level (ev):     5.4530    6.8311

!    total energy              =    -421.94903587 Ry

     total all-electron energy =     -5134.924639 Ry
     estimated scf accuracy    <          8.0E-09 Ry

     The total energy is the sum of the following terms:
     one-electron contribution =       6.78319518 Ry
     hartree contribution      =      15.84470327 Ry
     xc contribution           =     -31.40596641 Ry
     ewald contribution        =     -91.57504835 Ry
     one-center paw contrib.   =    -321.59591956 Ry

     convergence has been achieved in  10 iterations

     Writing all to output data dir ./work/Al2S2.save/
 
     init_run     :     13.72s CPU     15.73s WALL (       1 calls)
     electrons    :    348.07s CPU    408.83s WALL (       1 calls)

     Called by init_run:
     wfcinit      :      8.94s CPU     10.87s WALL (       1 calls)
     potinit      :      4.53s CPU      4.58s WALL (       1 calls)
     hinit0       :      0.17s CPU      0.18s WALL (       1 calls)

     Called by electrons:
     c_bands      :    306.08s CPU    356.71s WALL (      11 calls)
     sum_band     :     39.67s CPU     49.61s WALL (      11 calls)
     v_of_rho     :      4.99s CPU      5.11s WALL (      11 calls)
     newd         :      0.58s CPU      0.61s WALL (      11 calls)
     PAW_pot      :      1.24s CPU      1.34s WALL (      11 calls)
     mix_rho      :      0.03s CPU      0.03s WALL (      11 calls)
     vdW_kernel   :      4.32s CPU      4.34s WALL (       1 calls)

     Called by c_bands:
     init_us_2    :      4.13s CPU      4.25s WALL (    3220 calls)
     init_us_2:cp :      4.11s CPU      4.24s WALL (    3220 calls)
     cegterg      :    287.28s CPU    337.72s WALL (    1540 calls)

     Called by *egterg:
     cdiaghg      :     35.07s CPU     35.44s WALL (    5725 calls)
     h_psi        :    181.45s CPU    230.48s WALL (    6005 calls)
     s_psi        :     16.25s CPU     16.41s WALL (    6005 calls)
     g_psi        :      0.37s CPU      0.37s WALL (    4325 calls)

     Called by h_psi:
     h_psi:calbec :     16.11s CPU     19.00s WALL (    6005 calls)
     vloc_psi     :    142.72s CPU    188.33s WALL (    6005 calls)
     add_vuspsi   :     20.90s CPU     21.39s WALL (    6005 calls)

     General routines
     calbec       :     21.69s CPU     25.57s WALL (    7545 calls)
     fft          :      0.29s CPU      0.36s WALL (     672 calls)
     ffts         :      0.01s CPU      0.01s WALL (      11 calls)
     fftw         :    163.86s CPU    215.71s WALL (  639992 calls)
 
     Parallel routines
 
     PWSCF        :   6m 3.48s CPU   7m 8.21s WALL

 
   This run was terminated on:  14:54:19  24Jun2023            

=------------------------------------------------------------------------------=
   JOB DONE.
=------------------------------------------------------------------------------=
