
     Program PWSCF v.7.1 starts on 15Feb2023 at  8:20:14 

     This program is part of the open-source Quantum ESPRESSO suite
     for quantum simulation of materials; please cite
         "P. Giannozzi et al., J. Phys.:Condens. Matter 21 395502 (2009);
         "P. Giannozzi et al., J. Phys.:Condens. Matter 29 465901 (2017);
         "P. Giannozzi et al., J. Chem. Phys. 152 154105 (2020);
          URL http://www.quantum-espresso.org", 
     in publications or presentations arising from this work. More details at
     http://www.quantum-espresso.org/quote

     Parallel version (MPI), running on    12 processors

     MPI processes distributed on     1 nodes
     84405 MiB available memory on the printing compute node when the environment starts

     Waiting for input...
     Reading input from standard input

     Current dimensions of program PWSCF are:
     Max number of different atomic species (ntypx) = 10
     Max number of k-points (npk) =  40000
     Max angular momentum in pseudopotentials (lmaxx) =  4
     Message from routine volume:
     axis vectors are left-handed
     file Al.pbe-n-kjpaw_psl.1.0.0.UPF: wavefunction(s)  3S 3P renormalized
     file O.pbe-n-kjpaw_psl.1.0.0.UPF: wavefunction(s)  2S 2P renormalized
     file S.pbe-n-kjpaw_psl.1.0.0.UPF: wavefunction(s)  3S 3P renormalized
     Message from routine setup:
     using ibrav=0 with symmetry is DISCOURAGED, use correct ibrav instead

     R & G space division:  proc/nbgrp/npool/nimage =      12
     Subspace diagonalization in iterative solution of the eigenvalue problem:
     a serial algorithm will be used


     Parallelization info
     --------------------
     sticks:   dense  smooth     PW     G-vecs:    dense   smooth      PW
     Min          51      51     16                 8040     8040    1416
     Max          53      53     17                 8053     8053    1441
     Sum         625     625    199                96569    96569   17149

     Using Slab Decomposition



     bravais-lattice index     =            0
     lattice parameter (alat)  =       6.1344  a.u.
     unit-cell volume          =    1540.6476 (a.u.)^3
     number of atoms/cell      =            4
     number of atomic types    =            3
     number of electrons       =        18.00
     number of Kohn-Sham states=           36
     kinetic-energy cutoff     =      60.0000  Ry
     charge density cutoff     =     240.0000  Ry
     scf convergence threshold =      1.0E-08
     mixing beta               =       0.5000
     number of iterations used =            8  plain     mixing
     Exchange-correlation= SLA  PW   PBX  PBC
                           (   1   4   3   4   0   0   0)

     celldm(1)=   6.134387  celldm(2)=   0.000000  celldm(3)=   0.000000
     celldm(4)=   0.000000  celldm(5)=   0.000000  celldm(6)=   0.000000

     crystal axes: (cart. coord. in units of alat)
               a(1) = (   0.865734   0.500504   0.000000 )  
               a(2) = (   0.865734  -0.500504   0.000000 )  
               a(3) = (   0.000000   0.000000   7.701366 )  

     reciprocal axes: (cart. coord. in units 2 pi/alat)
               b(1) = (  0.577544  0.998993 -0.000000 )  
               b(2) = (  0.577544 -0.998993 -0.000000 )  
               b(3) = ( -0.000000 -0.000000  0.129847 )  


     PseudoPot. # 1 for Al read from file:
     /home/mainadmin/research/danu/pseudo/Al.pbe-n-kjpaw_psl.1.0.0.UPF
     MD5 check sum: 502b6b27b9c6270cab5dd1084b96fa6d
     Pseudo is Projector augmented-wave + core cor, Zval =  3.0
     Generated using &quot;atomic&quot; code by A. Dal Corso  v.6.3
     Shape of augmentation charge: PSQ
     Using radial grid of 1135 points,  6 beta functions with: 
                l(1) =   0
                l(2) =   0
                l(3) =   1
                l(4) =   1
                l(5) =   2
                l(6) =   2
     Q(r) pseudized with 0 coefficients 


     PseudoPot. # 2 for O  read from file:
     /home/mainadmin/research/danu/pseudo/O.pbe-n-kjpaw_psl.1.0.0.UPF
     MD5 check sum: e99d9cef9b487d1ca56f5b95ecd0fd7a
     Pseudo is Projector augmented-wave + core cor, Zval =  6.0
     Generated using &quot;atomic&quot; code by A. Dal Corso  v.6.3
     Shape of augmentation charge: PSQ
     Using radial grid of 1095 points,  4 beta functions with: 
                l(1) =   0
                l(2) =   0
                l(3) =   1
                l(4) =   1
     Q(r) pseudized with 0 coefficients 


     PseudoPot. # 3 for S  read from file:
     /home/mainadmin/research/danu/pseudo/S.pbe-n-kjpaw_psl.1.0.0.UPF
     MD5 check sum: fb45dfebcf3e72a4e1bd4a866ec2e262
     Pseudo is Projector augmented-wave + core cor, Zval =  6.0
     Generated using &quot;atomic&quot; code by A. Dal Corso  v.6.3
     Shape of augmentation charge: PSQ
     Using radial grid of 1151 points,  6 beta functions with: 
                l(1) =   0
                l(2) =   0
                l(3) =   1
                l(4) =   1
                l(5) =   2
                l(6) =   2
     Q(r) pseudized with 0 coefficients 


     atomic species   valence    mass     pseudopotential
        Al             3.00    26.98100     Al( 1.00)
        O              6.00    15.99900     O ( 1.00)
        S              6.00    32.06500     S ( 1.00)

      2 Sym. Ops. (no inversion) found



   Cartesian axes

     site n.     atom                  positions (alat units)
         1           O   tau(   1) = (   1.1543382   0.0000000   3.2384027  )
         2           Al  tau(   2) = (   0.5778012   0.0000000   3.4059957  )
         3           Al  tau(   3) = (   0.5767468   0.0000000   4.2109002  )
         4           S   tau(   4) = (   1.1540505   0.0000000   4.5877182  )

     number of k points=    49
                       cart. coord. in units 2pi/alat
        k(    1) = (   0.0000000   0.0000000   0.0000000), wk =   0.0118343
        k(    2) = (   0.0444265  -0.0768456   0.0000000), wk =   0.0473373
        k(    3) = (   0.0888530  -0.1536912   0.0000000), wk =   0.0473373
        k(    4) = (   0.1332795  -0.2305368   0.0000000), wk =   0.0473373
        k(    5) = (   0.1777060  -0.3073824   0.0000000), wk =   0.0473373
        k(    6) = (   0.2221325  -0.3842280   0.0000000), wk =   0.0473373
        k(    7) = (   0.2665590  -0.4610737   0.0000000), wk =   0.0473373
        k(    8) = (   0.0888530   0.0000000   0.0000000), wk =   0.0236686
        k(    9) = (   0.1332795  -0.0768456   0.0000000), wk =   0.0473373
        k(   10) = (   0.1777060  -0.1536912   0.0000000), wk =   0.0473373
        k(   11) = (   0.2221325  -0.2305368   0.0000000), wk =   0.0473373
        k(   12) = (   0.2665590  -0.3073824   0.0000000), wk =   0.0473373
        k(   13) = (   0.3109855  -0.3842280   0.0000000), wk =   0.0473373
        k(   14) = (  -0.2221325   0.5379193   0.0000000), wk =   0.0473373
        k(   15) = (  -0.1777060   0.4610737   0.0000000), wk =   0.0473373
        k(   16) = (  -0.1332795   0.3842280   0.0000000), wk =   0.0473373
        k(   17) = (  -0.0888530   0.3073824   0.0000000), wk =   0.0473373
        k(   18) = (  -0.0444265   0.2305368   0.0000000), wk =   0.0473373
        k(   19) = (   0.0000000   0.1536912   0.0000000), wk =   0.0236686
        k(   20) = (   0.1777060   0.0000000   0.0000000), wk =   0.0236686
        k(   21) = (   0.2221325  -0.0768456   0.0000000), wk =   0.0473373
        k(   22) = (   0.2665590  -0.1536912   0.0000000), wk =   0.0473373
        k(   23) = (   0.3109855  -0.2305368   0.0000000), wk =   0.0473373
        k(   24) = (   0.3554120  -0.3073824   0.0000000), wk =   0.0473373
        k(   25) = (  -0.1777060   0.6147649   0.0000000), wk =   0.0473373
        k(   26) = (  -0.1332795   0.5379193   0.0000000), wk =   0.0473373
        k(   27) = (  -0.0888530   0.4610737   0.0000000), wk =   0.0473373
        k(   28) = (  -0.0444265   0.3842280   0.0000000), wk =   0.0473373
        k(   29) = (   0.0000000   0.3073824   0.0000000), wk =   0.0236686
        k(   30) = (   0.2665590   0.0000000   0.0000000), wk =   0.0236686
        k(   31) = (   0.3109855  -0.0768456   0.0000000), wk =   0.0473373
        k(   32) = (   0.3554120  -0.1536912   0.0000000), wk =   0.0473373
        k(   33) = (   0.3998385  -0.2305368   0.0000000), wk =   0.0473373
        k(   34) = (  -0.1332795   0.6916105   0.0000000), wk =   0.0473373
        k(   35) = (  -0.0888530   0.6147649   0.0000000), wk =   0.0473373
        k(   36) = (  -0.0444265   0.5379193   0.0000000), wk =   0.0473373
        k(   37) = (   0.0000000   0.4610737   0.0000000), wk =   0.0236686
        k(   38) = (   0.3554120   0.0000000   0.0000000), wk =   0.0236686
        k(   39) = (   0.3998385  -0.0768456   0.0000000), wk =   0.0473373
        k(   40) = (   0.4442650  -0.1536912   0.0000000), wk =   0.0473373
        k(   41) = (  -0.0888530   0.7684561   0.0000000), wk =   0.0473373
        k(   42) = (  -0.0444265   0.6916105   0.0000000), wk =   0.0473373
        k(   43) = (   0.0000000   0.6147649   0.0000000), wk =   0.0236686
        k(   44) = (   0.4442650   0.0000000   0.0000000), wk =   0.0236686
        k(   45) = (   0.4886915  -0.0768456   0.0000000), wk =   0.0473373
        k(   46) = (  -0.0444265   0.8453017   0.0000000), wk =   0.0473373
        k(   47) = (   0.0000000   0.7684561   0.0000000), wk =   0.0236686
        k(   48) = (   0.5331180   0.0000000   0.0000000), wk =   0.0236686
        k(   49) = (   0.0000000   0.9221473   0.0000000), wk =   0.0236686

     Dense  grid:    96569 G-vectors     FFT dimensions: (  32,  32, 240)

     Estimated max dynamical RAM per process >      60.67 MB

     Estimated total dynamical RAM >     728.09 MB

     Check: negative core charge=   -0.000002

     Initial potential from superposition of free atoms

     starting charge      17.9954, renormalised to      18.0000

     negative rho (up, down):  1.008E-03 0.000E+00
     Starting wfcs are   16 randomized atomic wfcs +   20 random wfcs
     Checking if some PAW data can be deallocated... 

     total cpu time spent up to now is        2.0 secs

     Self-consistent Calculation

     iteration #  1     ecut=    60.00 Ry     beta= 0.50
     Davidson diagonalization with overlap
     ethr =  1.00E-02,  avg # of iterations =  8.1

     negative rho (up, down):  1.091E-03 0.000E+00

     total cpu time spent up to now is       12.3 secs

     total energy              =    -187.03457312 Ry
     estimated scf accuracy    <       0.56780679 Ry

     iteration #  2     ecut=    60.00 Ry     beta= 0.50
     Davidson diagonalization with overlap
     ethr =  3.15E-03,  avg # of iterations =  2.0

     negative rho (up, down):  9.946E-04 0.000E+00

     total cpu time spent up to now is       16.0 secs

     total energy              =    -187.15795788 Ry
     estimated scf accuracy    <       0.24102274 Ry

     iteration #  3     ecut=    60.00 Ry     beta= 0.50
     Davidson diagonalization with overlap
     ethr =  1.34E-03,  avg # of iterations =  2.5

     negative rho (up, down):  1.023E-03 0.000E+00

     total cpu time spent up to now is       19.8 secs

     total energy              =    -187.21137821 Ry
     estimated scf accuracy    <       0.04560823 Ry

     iteration #  4     ecut=    60.00 Ry     beta= 0.50
     Davidson diagonalization with overlap
     ethr =  2.53E-04,  avg # of iterations =  4.9

     negative rho (up, down):  1.078E-03 0.000E+00

     total cpu time spent up to now is       24.1 secs

     total energy              =    -187.22056152 Ry
     estimated scf accuracy    <       0.01282352 Ry

     iteration #  5     ecut=    60.00 Ry     beta= 0.50
     Davidson diagonalization with overlap
     ethr =  7.12E-05,  avg # of iterations =  5.4

     negative rho (up, down):  1.172E-03 0.000E+00

     total cpu time spent up to now is       28.3 secs

     total energy              =    -187.22239433 Ry
     estimated scf accuracy    <       0.00472446 Ry

     iteration #  6     ecut=    60.00 Ry     beta= 0.50
     Davidson diagonalization with overlap
     ethr =  2.62E-05,  avg # of iterations =  6.2

     negative rho (up, down):  1.187E-03 0.000E+00

     total cpu time spent up to now is       32.6 secs

     total energy              =    -187.22306875 Ry
     estimated scf accuracy    <       0.00014505 Ry

     iteration #  7     ecut=    60.00 Ry     beta= 0.50
     Davidson diagonalization with overlap
     ethr =  8.06E-07,  avg # of iterations =  8.2

     negative rho (up, down):  1.194E-03 0.000E+00

     total cpu time spent up to now is       37.9 secs

     total energy              =    -187.22311232 Ry
     estimated scf accuracy    <       0.00000482 Ry

     iteration #  8     ecut=    60.00 Ry     beta= 0.50
     Davidson diagonalization with overlap
     ethr =  2.68E-08,  avg # of iterations =  3.4

     negative rho (up, down):  1.198E-03 0.000E+00

     total cpu time spent up to now is       41.9 secs

     total energy              =    -187.22311481 Ry
     estimated scf accuracy    <       0.00000082 Ry

     iteration #  9     ecut=    60.00 Ry     beta= 0.50
     Davidson diagonalization with overlap
     ethr =  4.54E-09,  avg # of iterations =  3.3

     negative rho (up, down):  1.198E-03 0.000E+00

     total cpu time spent up to now is       45.8 secs

     total energy              =    -187.22311510 Ry
     estimated scf accuracy    <       0.00000002 Ry

     iteration # 10     ecut=    60.00 Ry     beta= 0.50
     Davidson diagonalization with overlap
     ethr =  9.95E-11,  avg # of iterations =  4.2

     negative rho (up, down):  1.197E-03 0.000E+00

     total cpu time spent up to now is       50.3 secs

     End of self-consistent calculation

          k = 0.0000 0.0000 0.0000 ( 12063 PWs)   bands (ev):

   -21.6514 -15.9998  -8.4961  -6.5506  -6.5460  -6.4184  -3.8198  -2.1484
    -2.1366  -0.6395   2.2163   2.9846   3.0821   3.8954   4.0291   4.3584
     5.3245   5.3274   5.3465   5.7328   6.7735   6.7999   7.2718   8.0354
     8.7350   8.7552   9.2866  10.0759  10.8547  10.8748  11.5255  12.4211
    12.7561  13.0275  13.0425  14.0567

          k = 0.0444-0.0768 0.0000 ( 12151 PWs)   bands (ev):

   -21.6230 -15.9227  -8.4372  -6.7709  -6.5825  -6.3610  -3.6888  -2.6406
    -2.2544  -0.4407   2.3106   3.0776   3.1905   4.0009   4.1408   4.6014
     4.9680   5.4389   5.5047   5.8392   6.2900   6.8885   7.2554   8.0975
     8.2430   8.6148   9.6157  10.2516  10.6196  11.0393  11.8202  12.5283
    12.9855  13.1059  13.2438  14.1715

          k = 0.0889-0.1537 0.0000 ( 12153 PWs)   bands (ev):

   -21.5431 -15.6971  -8.3184  -7.2177  -6.6721  -6.2053  -3.8348  -3.3378
    -2.5446   0.0667   2.5626   3.2470   3.4833   3.8048   4.3012   4.4738
     4.8855   5.4275   5.7241   6.1102   6.2390   7.0484   7.2687   7.8320
     8.5389   8.5703   9.2509  10.6273  10.7446  11.1440  11.8407  12.4405
    13.2809  13.5855  14.0883  14.6473

          k = 0.1333-0.2305 0.0000 ( 12147 PWs)   bands (ev):

   -21.4269 -15.3424  -8.4401  -7.3774  -6.7938  -6.0123  -5.0445  -3.0818
    -2.9005   0.6831   2.3184   3.0015   3.8394   3.9875   4.1951   4.4537
     4.9633   5.2451   5.6077   6.2316   6.7200   7.8417   7.9357   8.1701
     8.8856   9.0359   9.1076  10.3062  11.1118  11.1606  11.5433  12.2891
    13.4670  13.6917  14.1973  14.2031

          k = 0.1777-0.3074 0.0000 ( 12127 PWs)   bands (ev):

   -21.2988 -14.9008  -8.8756  -7.1690  -6.9177  -6.3989  -5.4613  -3.2294
    -2.8742   0.6973   1.7890   3.1089   3.4716   3.9572   4.6064   4.9008
     5.3192   5.4543   5.7470   6.5607   7.4215   7.8993   8.2939   8.9447
     9.1974   9.5662  10.1746  10.2433  10.8090  11.4225  11.6247  12.0313
    12.1332  12.5889  12.7811  13.0000

          k = 0.2221-0.3842 0.0000 ( 12089 PWs)   bands (ev):

   -21.1885 -14.4566  -9.2743  -7.6434  -7.0167  -6.4439  -5.1438  -3.4736
    -2.8466  -0.0714   1.9470   2.8641   3.0826   4.1209   5.0643   5.4118
     5.7918   6.0536   6.6927   7.0940   7.9787   8.2386   8.3524   8.6158
     9.0573   9.6727  10.1498  10.3033  10.7848  10.9502  11.2097  11.6636
    12.0644  12.0854  12.2966  12.9549

          k = 0.2666-0.4611 0.0000 ( 12070 PWs)   bands (ev):

   -21.1244 -14.1563  -9.4982  -8.1850  -7.0712  -6.1877  -4.8110  -3.6023
    -3.0281  -0.4953   1.8847   2.5905   3.0383   4.4624   4.9235   6.1346
     6.6889   6.9995   7.2242   7.7922   7.9096   8.2769   8.3334   8.5170
     8.6526   9.1311   9.3456   9.5120   9.9721  10.6277  11.1195  11.4859
    12.1147  12.1246  12.7274  13.1958

          k = 0.0889 0.0000 0.0000 ( 12151 PWs)   bands (ev):

   -21.6229 -15.9225  -8.4370  -6.7741  -6.5794  -6.3609  -3.6888  -2.6317
    -2.2641  -0.4409   2.3108   3.0777   3.1907   4.0010   4.1402   4.5939
     4.9869   5.4403   5.4888   5.8405   6.3060   6.8695   7.2569   8.1058
     8.2466   8.5980   9.6199  10.2521  10.6274  11.0254  11.8223  12.5335
    12.9892  13.0937  13.2503  14.1750

          k = 0.1333-0.0768 0.0000 ( 12137 PWs)   bands (ev):

   -21.5686 -15.7709  -8.3446  -7.0945  -6.6530  -6.2547  -3.5843  -3.2945
    -2.5163  -0.0876   2.4877   3.2424   3.3994   4.0708   4.2463   4.4464
     5.0641   5.3644   5.6296   5.8222   6.0977   7.2003   7.2401   7.7995
     8.2919   8.4984   9.6654  10.5120  10.6206  10.9590  12.2737  12.4840
    12.8773  13.4390  14.0267  14.5796

          k = 0.1777-0.1537 0.0000 ( 12137 PWs)   bands (ev):

   -21.4704 -15.4799  -8.3324  -7.3706  -6.7877  -6.0705  -4.5412  -3.1710
    -2.9413   0.5003   2.7311   3.0616   3.6990   3.8681   4.3866   4.6835
     4.8223   5.0536   5.6667   6.1110   6.5158   7.0009   7.5380   8.1627
     8.8247   8.9436   9.3230  10.3424  10.8729  11.1360  12.0208  12.7408
    13.1280  13.8670  14.4094  14.6094

          k = 0.2221-0.2305 0.0000 ( 12145 PWs)   bands (ev):

   -21.3479 -15.0791  -8.6588  -7.2342  -6.9432  -6.0652  -5.4318  -3.3816
    -2.9269   1.0105   1.9768   3.1395   3.8723   4.0575   4.2896   4.6161
     5.0676   5.3935   5.6636   6.3607   7.1363   7.7251   7.7791   8.4348
     9.1171   9.3240   9.9788  10.3602  10.9732  11.5139  11.8294  12.3627
    12.9082  13.1653  13.4096  13.8129

          k = 0.2666-0.3074 0.0000 ( 12097 PWs)   bands (ev):

   -21.2282 -14.6288  -9.0740  -7.2678  -7.0893  -6.5133  -5.2829  -3.7299
    -2.8003   0.4405   2.0424   3.0403   3.5589   3.7992   4.8160   5.2055
     5.4508   5.7412   6.2893   6.8535   7.7853   8.0804   8.1631   8.9031
     9.1081   9.7976  10.2499  10.6567  10.7390  11.2074  11.4299  11.8263
    12.0119  12.4594  12.6696  13.0265

          k = 0.3110-0.3842 0.0000 ( 12079 PWs)   bands (ev):

   -21.1405 -14.2421  -9.3723  -7.9152  -7.1913  -6.2580  -4.9320  -3.9459
    -2.8890  -0.2252   2.1460   2.8215   3.3196   4.0340   4.7300   5.9125
     6.3446   6.5834   7.2336   7.4494   7.6573   8.1555   8.6323   8.9677
     9.1345   9.3330   9.6353  10.0557  10.3680  10.8233  11.3448  11.5556
    11.6438  11.9357  12.2840  12.7412

          k =-0.2221 0.5379 0.0000 ( 12054 PWs)   bands (ev):

   -21.1084 -14.0824  -9.4791  -8.1965  -7.2269  -6.1203  -4.7310  -4.0122
    -3.0300  -0.4379   2.0794   2.7632   3.2588   4.2115   4.6685   6.4780
     6.7673   7.3422   7.6008   7.6611   7.9336   8.0481   8.4548   8.6293
     8.7573   8.8842   9.2971   9.8724  10.2970  10.3907  10.8279  11.5563
    12.1452  12.2680  12.6168  12.7453

          k =-0.1777 0.4611 0.0000 ( 12075 PWs)   bands (ev):

   -21.1408 -14.2430  -9.3710  -7.9137  -7.1929  -6.2585  -4.9330  -3.9475
    -2.8887  -0.2244   2.1467   2.8226   3.3206   4.0345   4.7278   5.9120
     6.3427   6.5813   7.2312   7.4491   7.6581   8.1543   8.6307   8.9686
     9.1385   9.3362   9.6380  10.0579  10.3699  10.8230  11.3497  11.5604
    11.6568  11.9387  12.2879  12.7427

          k =-0.1333 0.3842 0.0000 ( 12097 PWs)   bands (ev):

   -21.2286 -14.6300  -9.0717  -7.2669  -7.0916  -6.5131  -5.2837  -3.7330
    -2.8004   0.4423   2.0437   3.0416   3.5607   3.7981   4.8157   5.2036
     5.4487   5.7409   6.2871   6.8538   7.7813   8.0820   8.1639   8.9037
     9.1273   9.7986  10.2532  10.6637  10.7419  11.2113  11.4297  11.8282
    12.0143  12.4570  12.6607  13.0177

          k =-0.0889 0.3074 0.0000 ( 12135 PWs)   bands (ev):

   -21.3484 -15.0803  -8.6563  -7.2349  -6.9461  -6.0645  -5.4309  -3.3849
    -2.9273   1.0116   1.9795   3.1392   3.8694   4.0592   4.2900   4.6148
     5.0674   5.3915   5.6653   6.3609   7.1339   7.7394   7.7904   8.4350
     9.1172   9.3238   9.9756  10.3489  10.9730  11.5131  11.8312  12.3624
    12.9098  13.1686  13.4087  13.8164

          k =-0.0444 0.2305 0.0000 ( 12138 PWs)   bands (ev):

   -21.4708 -15.4809  -8.3314  -7.3687  -6.7916  -6.0713  -4.5405  -3.1709
    -2.9427   0.5012   2.7314   3.0615   3.6981   3.8669   4.3850   4.6833
     4.8257   5.0467   5.6780   6.1172   6.5139   7.0105   7.5402   8.1577
     8.8212   8.9356   9.3275  10.3387  10.8761  11.1348  12.0263  12.7445
    13.1341  13.8637  14.4088  14.6095

          k = 0.0000 0.1537 0.0000 ( 12135 PWs)   bands (ev):

   -21.5689 -15.7715  -8.3449  -7.0905  -6.6572  -6.2552  -3.5861  -3.2973
    -2.5111  -0.0870   2.4872   3.2419   3.3987   4.0680   4.2455   4.4450
     5.0797   5.3625   5.6266   5.8186   6.0954   7.2123   7.2362   7.7980
     8.2921   8.4993   9.6678  10.5162  10.6198  10.9585  12.2754  12.4857
    12.8822  13.4339  14.0233  14.5708

          k = 0.1777 0.0000 0.0000 ( 12155 PWs)   bands (ev):

   -21.5427 -15.6963  -8.3179  -7.2201  -6.6698  -6.2047  -3.8270  -3.3366
    -2.5561   0.0660   2.5634   3.2477   3.4842   3.8061   4.3021   4.4753
     4.8887   5.4300   5.7080   6.1163   6.2426   7.0568   7.2526   7.8356
     8.5403   8.5525   9.2549  10.6304  10.7475  11.1294  11.8430  12.4386
    13.2965  13.5748  14.0917  14.6586

          k = 0.2221-0.0768 0.0000 ( 12141 PWs)   bands (ev):

   -21.4701 -15.4793  -8.3322  -7.3709  -6.7875  -6.0700  -4.5357  -3.1704
    -2.9497   0.4997   2.7329   3.0636   3.6999   3.8686   4.3866   4.6839
     4.8200   5.0479   5.6683   6.1148   6.5160   7.0051   7.5327   8.1595
     8.8232   8.9408   9.3256  10.3365  10.8732  11.1344  12.0197  12.7437
    13.1316  13.8712  14.4168  14.6134

          k = 0.2666-0.1537 0.0000 ( 12135 PWs)   bands (ev):

   -21.3653 -15.1405  -8.5584  -7.2509  -7.0059  -5.9697  -5.2616  -3.6275
    -2.9454   1.1145   2.2908   3.0893   3.6736   4.1104   4.5042   4.8230
     4.9851   5.3468   6.0147   6.2363   6.3837   7.0426   7.6118   8.4828
     9.1385   9.3413   9.7996  10.5055  11.2218  11.5876  12.2780  12.6411
    13.0514  13.4208  13.9679  14.2292

          k = 0.3110-0.2305 0.0000 ( 12078 PWs)   bands (ev):

   -21.2505 -14.7233  -8.8869  -7.2578  -7.0528  -6.3634  -5.3149  -4.2537
    -2.7742   1.1645   1.9217   3.1866   3.2511   4.4249   4.7998   5.2531
     5.3751   5.6705   6.0881   6.6587   7.3038   7.5536   7.9701   8.1458
     9.3255   9.6970  10.1009  10.9880  11.4424  11.5937  12.1439  12.3625
    12.5997  12.8005  13.1333  13.3183

          k = 0.3554-0.3074 0.0000 ( 12075 PWs)   bands (ev):

   -21.1524 -14.3105  -9.1642  -7.5067  -7.4562  -6.2950  -5.0299  -4.6480
    -2.7425   0.2940   2.3225   3.0067   3.2987   4.1870   5.0268   5.6892
     6.0863   6.2691   6.8407   7.2913   7.3864   8.4711   8.5243   8.8311
     9.1322   9.7643  10.3653  10.6051  10.8317  10.8732  11.2702  11.4628
    11.7215  11.9425  12.7568  13.0874

          k =-0.1777 0.6148 0.0000 ( 12048 PWs)   bands (ev):

   -21.0959 -14.0371  -9.3187  -7.9452  -7.5829  -6.0812  -4.9972  -4.5703
    -2.8673  -0.2071   2.3961   3.0465   3.2100   4.2405   4.8637   6.3233
     6.6729   7.1120   7.4889   7.7094   8.0519   8.4041   8.5539   8.9060
     9.1922   9.5718   9.7508   9.9704  10.3262  10.6552  11.1383  11.3631
    11.5590  11.8054  12.1340  12.5647

          k =-0.1333 0.5379 0.0000 ( 12046 PWs)   bands (ev):

   -21.0961 -14.0380  -9.3174  -7.9437  -7.5843  -6.0817  -4.9986  -4.5711
    -2.8667  -0.2064   2.3965   3.0489   3.2072   4.2422   4.8644   6.3200
     6.6747   7.1083   7.4850   7.7083   8.0493   8.4036   8.5554   8.9111
     9.1932   9.5765   9.7532   9.9722  10.3319  10.6541  11.1430  11.3677
    11.5640  11.8115  12.1301  12.5620

          k =-0.0889 0.4611 0.0000 ( 12071 PWs)   bands (ev):

   -21.1531 -14.3126  -9.1606  -7.5054  -7.4581  -6.2960  -5.0319  -4.6510
    -2.7424   0.2966   2.3234   3.0077   3.2966   4.1903   5.0291   5.6883
     6.0824   6.2659   6.8357   7.2899   7.3862   8.4711   8.5257   8.8452
     9.1413   9.7673  10.3664  10.6099  10.8356  10.8756  11.2735  11.4649
    11.7210  11.9457  12.7597  13.0851

          k =-0.0444 0.3842 0.0000 ( 12080 PWs)   bands (ev):

   -21.2514 -14.7258  -8.8823  -7.2636  -7.0522  -6.3618  -5.3158  -4.2573
    -2.7749   1.1679   1.9238   3.1859   3.2479   4.4282   4.7999   5.2505
     5.3738   5.6729   6.0848   6.6587   7.3289   7.5515   7.9718   8.1460
     9.3227   9.6951  10.1032  10.9881  11.4388  11.5986  12.1499  12.3675
    12.5999  12.7961  13.1375  13.3191

          k = 0.0000 0.3074 0.0000 ( 12137 PWs)   bands (ev):

   -21.3662 -15.1427  -8.5548  -7.2509  -7.0112  -5.9710  -5.2611  -3.6274
    -2.9463   1.1165   2.2919   3.0879   3.6705   4.1089   4.5023   4.8258
     4.9866   5.3444   6.0261   6.2481   6.3876   7.0392   7.6169   8.4815
     9.1375   9.3425   9.7981  10.4924  11.2250  11.5859  12.2802  12.6479
    13.0516  13.4228  13.9675  14.2283

          k = 0.2666 0.0000 0.0000 ( 12147 PWs)   bands (ev):

   -21.4261 -15.3406  -8.4406  -7.3774  -6.7926  -6.0103  -5.0375  -3.0808
    -2.9140   0.6815   2.3217   3.0031   3.8406   3.9859   4.1962   4.4571
     4.9655   5.2471   5.5893   6.2348   6.7216   7.8445   7.9216   8.1777
     8.8882   9.0223   9.1111  10.3077  11.1129  11.1443  11.5472  12.2921
    13.4833  13.7048  14.1870  14.2239

          k = 0.3110-0.0768 0.0000 ( 12133 PWs)   bands (ev):

   -21.3472 -15.0775  -8.6589  -7.2333  -6.9434  -6.0609  -5.4281  -3.3943
    -2.9258   1.0095   1.9815   3.1412   3.8674   4.0550   4.2887   4.6175
     5.0642   5.3934   5.6601   6.3630   7.1373   7.7325   7.7805   8.4306
     9.1206   9.3245   9.9774  10.3505  10.9679  11.5157  11.8320  12.3691
    12.9206  13.1830  13.4084  13.8236

          k = 0.3554-0.1537 0.0000 ( 12078 PWs)   bands (ev):

   -21.2501 -14.7223  -8.8869  -7.2587  -7.0506  -6.3608  -5.3137  -4.2611
    -2.7732   1.1669   1.9214   3.1858   3.2484   4.4210   4.7990   5.2530
     5.3732   5.6648   6.0890   6.6599   7.3167   7.5534   7.9697   8.1479
     9.3273   9.6978  10.1000  10.9896  11.4359  11.5961  12.1540  12.3783
    12.6005  12.8054  13.1420  13.3275

          k = 0.3998-0.2305 0.0000 ( 12080 PWs)   bands (ev):

   -21.1565 -14.3356  -9.0439  -7.6224  -7.2517  -6.2830  -5.1320  -4.9817
    -2.6831   0.6815   2.0372   3.0543   3.2710   4.3531   5.4762   5.9533
     6.0761   6.2427   6.7239   7.2138   7.3033   7.4116   8.4445   8.7096
     9.1595  10.0063  10.3385  10.7712  11.1386  11.5664  11.7879  11.8486
    11.9830  12.3582  12.4668  12.6390

          k =-0.1333 0.6916 0.0000 ( 12029 PWs)   bands (ev):

   -21.0889 -14.0179  -9.1108  -7.9281  -7.5729  -6.0595  -5.6982  -4.6267
    -2.6931   0.0263   2.1759   2.9786   3.4928   4.1965   5.9895   6.2327
     6.4936   6.9970   7.3034   7.9069   8.1496   8.2361   8.6917   8.9358
     9.5391   9.8356  10.0222  10.1539  10.4096  10.9410  11.0184  11.3390
    11.6011  11.6681  11.9850  12.3374

          k =-0.0889 0.6148 0.0000 ( 12058 PWs)   bands (ev):

   -21.0645 -13.8919  -9.1207  -8.0525  -7.7090  -6.0016  -5.8637  -4.4373
    -2.7364  -0.2516   2.3203   2.8503   3.4702   4.3242   5.9046   6.2255
     7.1918   7.4489   7.7186   8.2329   8.5268   8.6507   8.7808   9.1669
     9.3597   9.4207   9.6466   9.9719  10.1922  10.8254  11.0461  11.1086
    11.3694  11.4570  11.6065  11.8629

          k =-0.0444 0.5379 0.0000 ( 12034 PWs)   bands (ev):

   -21.0896 -14.0202  -9.1067  -7.9322  -7.5697  -6.0608  -5.6998  -4.6290
    -2.6930   0.0288   2.1758   2.9782   3.4938   4.1991   5.9897   6.2338
     6.4942   6.9921   7.2974   7.9008   8.1475   8.2403   8.7038   8.9400
     9.5411   9.8331  10.0263  10.1599  10.4118  10.9469  11.0249  11.3368
    11.5980  11.6666  11.9837  12.3338

          k = 0.0000 0.4611 0.0000 ( 12084 PWs)   bands (ev):

   -21.1576 -14.3391  -9.0384  -7.6279  -7.2494  -6.2845  -5.1318  -4.9849
    -2.6842   0.6846   2.0391   3.0522   3.2723   4.3579   5.4744   5.9492
     6.0759   6.2506   6.7199   7.2149   7.3016   7.4288   8.4397   8.7064
     9.1567  10.0054  10.3384  10.7719  11.1379  11.5678  11.7873  11.8502
    11.9834  12.3638  12.4678  12.6397

          k = 0.3554 0.0000 0.0000 ( 12123 PWs)   bands (ev):

   -21.2975 -14.8977  -8.8768  -7.1658  -6.9177  -6.3939  -5.4587  -3.2446
    -2.8719   0.6975   1.7872   3.1116   3.4663   3.9581   4.6096   4.9040
     5.2988   5.4575   5.7501   6.5650   7.4244   7.9031   8.2774   8.9473
     9.1986   9.5702  10.1781  10.2372  10.8160  11.4065  11.6373  12.0384
    12.1484  12.6010  12.7934  13.0094

          k = 0.3998-0.0768 0.0000 ( 12095 PWs)   bands (ev):

   -21.2270 -14.6257  -9.0744  -7.2627  -7.0901  -6.5104  -5.2807  -3.7448
    -2.7975   0.4421   2.0394   3.0450   3.5505   3.7931   4.8091   5.2031
     5.4527   5.7450   6.2920   6.8579   7.7811   8.0773   8.1669   8.9067
     9.1148   9.8022  10.2540  10.6599  10.7448  11.2225  11.4324  11.8368
    12.0220  12.4610  12.6713  13.0251

          k = 0.4443-0.1537 0.0000 ( 12067 PWs)   bands (ev):

   -21.1515 -14.3080  -9.1645  -7.5033  -7.4555  -6.2932  -5.0295  -4.6574
    -2.7396   0.2951   2.3199   3.0039   3.2968   4.1801   5.0140   5.6921
     6.0880   6.2717   6.8390   7.2902   7.3902   8.4772   8.5301   8.8411
     9.1386   9.7730  10.3725  10.6182  10.8331  10.8725  11.2774  11.4691
    11.7168  11.9460  12.7602  13.0767

          k =-0.0889 0.7685 0.0000 ( 12036 PWs)   bands (ev):

   -21.0884 -14.0164  -9.1114  -7.9281  -7.5700  -6.0585  -5.7036  -4.6255
    -2.6912   0.0256   2.1729   2.9805   3.4893   4.1960   5.9830   6.2249
     6.4893   6.9978   7.3050   7.9086   8.1539   8.2427   8.7027   8.9429
     9.5430   9.8372  10.0266  10.1626  10.4148  10.9490  11.0285  11.3294
    11.5905  11.6616  11.9818  12.3228

          k =-0.0444 0.6916 0.0000 ( 12036 PWs)   bands (ev):

   -21.0528 -13.8386  -8.9434  -8.3307  -7.4509  -6.4238  -5.9189  -4.3751
    -2.6372  -0.3210   2.1073   3.1034   3.5517   4.1149   6.0195   6.9956
     7.3373   7.5857   8.0772   8.3012   8.5017   8.7258   9.0239   9.3327
     9.3579   9.7048   9.8466   9.9489  10.0472  10.5896  10.7273  10.8299
    10.8944  11.0516  11.3085  11.6674

          k = 0.0000 0.6148 0.0000 ( 12050 PWs)   bands (ev):

   -21.0532 -13.8401  -8.9400  -8.3339  -7.4503  -6.4228  -5.9197  -4.3769
    -2.6377  -0.3191   2.1078   3.1000   3.5579   4.1140   6.0205   6.9968
     7.3420   7.5851   8.0715   8.3041   8.4938   8.7230   9.0268   9.3316
     9.3515   9.7072   9.8487   9.9522  10.0506  10.5920  10.7308  10.8322
    10.8966  11.0485  11.3051  11.6530

          k = 0.4443 0.0000 0.0000 ( 12085 PWs)   bands (ev):

   -21.1868 -14.4520  -9.2756  -7.6382  -7.0175  -6.4409  -5.1404  -3.4899
    -2.8425  -0.0720   1.9389   2.8677   3.0758   4.1217   5.0426   5.4172
     5.7966   6.0596   6.6977   7.0994   7.9830   8.2433   8.3343   8.6215
     9.0526   9.6841  10.1611  10.3101  10.7955  10.9605  11.2182  11.6554
    12.0760  12.0763  12.3065  12.9645

          k = 0.4887-0.0768 0.0000 ( 12079 PWs)   bands (ev):

   -21.1389 -14.2375  -9.3731  -7.9101  -7.1927  -6.2552  -4.9288  -3.9611
    -2.8843  -0.2264   2.1417   2.8204   3.3099   4.0283   4.7194   5.9179
     6.3495   6.5887   7.2357   7.4526   7.6611   8.1512   8.6374   8.9730
     9.1349   9.3418   9.6424  10.0667  10.3772  10.8280  11.3502  11.5635
    11.6549  11.9389  12.2903  12.7329

          k =-0.0444 0.8453 0.0000 ( 12050 PWs)   bands (ev):

   -21.0945 -14.0330  -9.3200  -7.9411  -7.5832  -6.0788  -5.0060  -4.5694
    -2.8630  -0.2092   2.3969   3.0404   3.2025   4.2329   4.8530   6.3206
     6.6775   7.1154   7.4938   7.7141   8.0578   8.4091   8.5615   8.9180
     9.1985   9.5774   9.7591   9.9755  10.3317  10.6584  11.1353  11.3645
    11.5651  11.8119  12.1329  12.5650

          k = 0.0000 0.7685 0.0000 ( 12062 PWs)   bands (ev):

   -21.0636 -13.8890  -9.1232  -8.0509  -7.7066  -6.0022  -5.8679  -4.4344
    -2.7337  -0.2546   2.3158   2.8560   3.4614   4.3242   5.8994   6.2050
     7.1974   7.4529   7.7237   8.2402   8.5336   8.6589   8.7862   9.1683
     9.3680   9.4264   9.6514   9.9752  10.1947  10.8274  11.0508  11.1072
    11.3628  11.4588  11.5970  11.8627

          k = 0.5331 0.0000 0.0000 ( 12062 PWs)   bands (ev):

   -21.1225 -14.1505  -9.4995  -8.1810  -7.0724  -6.1842  -4.8062  -3.6192
    -3.0230  -0.4979   1.8769   2.5879   3.0321   4.4674   4.9012   6.1401
     6.6963   7.0064   7.2317   7.8000   7.9166   8.2858   8.3145   8.5180
     8.6568   9.1386   9.3533   9.5192   9.9792  10.6360  11.1284  11.4926
    12.1107  12.1218  12.7346  13.2037

          k = 0.0000 0.9221 0.0000 ( 12048 PWs)   bands (ev):

   -21.1065 -14.0768  -9.4806  -8.1927  -7.2278  -6.1169  -4.7269  -4.0265
    -3.0251  -0.4407   2.0768   2.7564   3.2491   4.1999   4.6669   6.4807
     6.7757   7.3502   7.6047   7.6645   7.9375   8.0541   8.4620   8.6332
     8.7606   8.8889   9.2980   9.8756  10.3039  10.3969  10.8357  11.5554
    12.1421  12.2701  12.6202  12.7466

     highest occupied, lowest unoccupied level (ev):    -2.1366   -0.6395

!    total energy              =    -187.22311512 Ry
     total all-electron energy =     -1920.456686 Ry
     estimated scf accuracy    <          5.6E-09 Ry

     The total energy is the sum of the following terms:
     one-electron contribution =    -526.57051052 Ry
     hartree contribution      =     268.22246847 Ry
     xc contribution           =     -17.82709670 Ry
     ewald contribution        =     214.03297340 Ry
     one-center paw contrib.   =    -125.08094977 Ry

     convergence has been achieved in  10 iterations

     Writing all to output data dir ./work/Al2SO.save/

     init_run     :      1.72s CPU      1.83s WALL (       1 calls)
     electrons    :     45.53s CPU     48.28s WALL (       1 calls)

     Called by init_run:
     wfcinit      :      1.05s CPU      1.13s WALL (       1 calls)
     potinit      :      0.17s CPU      0.18s WALL (       1 calls)
     hinit0       :      0.43s CPU      0.43s WALL (       1 calls)

     Called by electrons:
     c_bands      :     40.30s CPU     42.64s WALL (      10 calls)
     sum_band     :      3.91s CPU      4.30s WALL (      10 calls)
     v_of_rho     :      0.08s CPU      0.08s WALL (      11 calls)
     newd         :      0.68s CPU      0.71s WALL (      11 calls)
     PAW_pot      :      0.63s CPU      0.64s WALL (      11 calls)
     mix_rho      :      0.02s CPU      0.02s WALL (      10 calls)

     Called by c_bands:
     init_us_2    :      0.32s CPU      0.33s WALL (    1029 calls)
     init_us_2:cp :      0.32s CPU      0.33s WALL (    1029 calls)
     cegterg      :     39.05s CPU     41.39s WALL (     490 calls)

     Called by *egterg:
     cdiaghg      :      3.45s CPU      3.52s WALL (    2857 calls)
     h_psi        :     17.54s CPU     19.70s WALL (    2906 calls)
     s_psi        :      3.05s CPU      3.09s WALL (    2906 calls)
     g_psi        :      0.11s CPU      0.11s WALL (    2367 calls)

     Called by h_psi:
     h_psi:calbec :      3.27s CPU      3.71s WALL (    2906 calls)
     vloc_psi     :     11.00s CPU     12.59s WALL (    2906 calls)
     add_vuspsi   :      3.09s CPU      3.21s WALL (    2906 calls)

     General routines
     calbec       :      4.33s CPU      4.89s WALL (    3396 calls)
     fft          :      0.30s CPU      0.30s WALL (     121 calls)
     ffts         :      0.00s CPU      0.00s WALL (      10 calls)
     fftw         :     11.45s CPU     13.09s WALL (  114674 calls)

     Parallel routines

     PWSCF        :     47.57s CPU     50.62s WALL


   This run was terminated on:   8:21: 5  15Feb2023            

=------------------------------------------------------------------------------=
   JOB DONE.
=------------------------------------------------------------------------------=
