
     Program BANDS v.7.1 starts on 15Feb2023 at  8:23:21 

     This program is part of the open-source Quantum ESPRESSO suite
     for quantum simulation of materials; please cite
         "P. Giannozzi et al., J. Phys.:Condens. Matter 21 395502 (2009);
         "P. Giannozzi et al., J. Phys.:Condens. Matter 29 465901 (2017);
         "P. Giannozzi et al., J. Chem. Phys. 152 154105 (2020);
          URL http://www.quantum-espresso.org", 
     in publications or presentations arising from this work. More details at
     http://www.quantum-espresso.org/quote

     Parallel version (MPI), running on    12 processors

     MPI processes distributed on     1 nodes
     R & G space division:  proc/nbgrp/npool/nimage =      12
     83124 MiB available memory on the printing compute node when the environment starts


     Reading xml data from directory:

     ./work/Al2SO.save/
     Message from routine volume:
     axis vectors are left-handed
     file Al.pbe-n-kjpaw_psl.1.0.0.UPF: wavefunction(s)  3S 3P renormalized
     file O.pbe-n-kjpaw_psl.1.0.0.UPF: wavefunction(s)  2S 2P renormalized
     file S.pbe-n-kjpaw_psl.1.0.0.UPF: wavefunction(s)  3S 3P renormalized

     IMPORTANT: XC functional enforced from input :
     Exchange-correlation= PBE
                           (   1   4   3   4   0   0   0)
     Any further DFT definition will be discarded
     Please, verify this is what you really want


     Parallelization info
     --------------------
     sticks:   dense  smooth     PW     G-vecs:    dense   smooth      PW
     Min          51      51     15                 8040     8040    1289
     Max          53      53     16                 8053     8053    1312
     Sum         625     625    187                96569    96569   15597

     Using Slab Decomposition


     Check: negative core charge=   -0.000002

     negative rho (up, down):  1.197E-03 0.000E+00
     Reading collected, re-writing distributed wavefunctions
     high-symmetry point:  0.0000 0.0000 0.0000   x coordinate   0.0000
     high-symmetry point:  0.5775-0.3325 0.0000   x coordinate   0.6664
     high-symmetry point:  0.5775 0.0000 0.0000   x coordinate   0.9990
     high-symmetry point:  0.0000 0.0000 0.0000   x coordinate   1.5765

     Plottable bands (eV) written to file Al2SO.bands.gnu
     Bands written to file Al2SO.bands

 **************************************************************************

                    xk=(   0.00000,   0.00000,   0.00000  )

     point group C_s (m)    
     there are  2 classes
     the character table:

       E     s    
A'     1.00  1.00
A''    1.00 -1.00

     the symmetry operations in each class and the name of the first element:

     E        1
                                                                 
     s        2
                                                                 

     Band symmetry, C_s (m)     point group:

     e(  1 -  1) =    -21.65231  eV     1   --> A'             
     e(  2 -  2) =    -16.00016  eV     1   --> A'             
     e(  3 -  3) =     -8.49659  eV     1   --> A'             
     e(  4 -  4) =     -6.55156  eV     1   --> A'             
     e(  5 -  5) =     -6.54687  eV     1   --> A''            
     e(  6 -  6) =     -6.41894  eV     1   --> A'             
     e(  7 -  7) =     -3.82026  eV     1   --> A'             
     e(  8 -  8) =     -2.14867  eV     1   --> A''            
     e(  9 -  9) =     -2.13692  eV     1   --> A'             
     e( 10 - 10) =     -0.63975  eV     1   --> A'             
     e( 11 - 11) =      2.21635  eV     1   --> A'             
     e( 12 - 12) =      2.98464  eV     1   --> A'             
     e( 13 - 13) =      3.08210  eV     1   --> A'             
     e( 14 - 14) =      3.89550  eV     1   --> A'             
     e( 15 - 15) =      4.02898  eV     1   --> A'             
     e( 16 - 16) =      4.35822  eV     1   --> A'             
     e( 17 - 17) =      5.32409  eV     1   --> A''            
     e( 18 - 18) =      5.32734  eV     1   --> A'             
     e( 19 - 19) =      5.34611  eV     1   --> A'             
     e( 20 - 20) =      5.73280  eV     1   --> A'             
     e( 21 - 21) =      6.77320  eV     1   --> A''            
     e( 22 - 22) =      6.79960  eV     1   --> A'             
     e( 23 - 23) =      7.27182  eV     1   --> A'             
     e( 24 - 24) =      8.03538  eV     1   --> A'             
     e( 25 - 25) =      8.73459  eV     1   --> A''            
     e( 26 - 26) =      8.75482  eV     1   --> A'             
     e( 27 - 27) =      9.28638  eV     1   --> A'             
     e( 28 - 28) =     10.07587  eV     1   --> A'             
     e( 29 - 29) =     10.85442  eV     1   --> A''            
     e( 30 - 30) =     10.87446  eV     1   --> A'             
     e( 31 - 31) =     11.52549  eV     1   --> A'             
     e( 32 - 32) =     12.42081  eV     1   --> A'             
     e( 33 - 33) =     12.75594  eV     1   --> A'             
     e( 34 - 34) =     13.02700  eV     1   --> A''            
     e( 35 - 35) =     13.04203  eV     1   --> A'             
     e( 36 - 36) =     14.05657  eV     1   --> A'             

 **************************************************************************

 **************************************************************************

                    xk=(   0.01925,  -0.01108,   0.00000  )

     point group C_1 (1)    
     there are  1 classes
     the character table:

       E    
A      1.00

     the symmetry operations in each class and the name of the first element:

     E        1
                                                                 

     Band symmetry, C_1 (1)     point group:

     e(  1 -  1) =    -21.65051  eV     1   --> A              
     e(  2 -  2) =    -15.99531  eV     1   --> A              
     e(  3 -  3) =     -8.49270  eV     1   --> A              
     e(  4 -  4) =     -6.56631  eV     1   --> A              
     e(  5 -  5) =     -6.54992  eV     1   --> A              
     e(  6 -  6) =     -6.41502  eV     1   --> A              
     e(  7 -  7) =     -3.81093  eV     1   --> A              
     e(  8 -  8) =     -2.17521  eV     1   --> A              
     e(  9 -  9) =     -2.15208  eV     1   --> A              
     e( 10 - 10) =     -0.62659  eV     1   --> A              
     e( 11 - 11) =      2.22239  eV     1   --> A              
     e( 12 - 12) =      2.99073  eV     1   --> A              
     e( 13 - 13) =      3.08900  eV     1   --> A              
     e( 14 - 14) =      3.90283  eV     1   --> A              
     e( 15 - 15) =      4.03995  eV     1   --> A              
     e( 16 - 16) =      4.37825  eV     1   --> A              
     e( 17 - 17) =      5.28036  eV     1   --> A              
     e( 18 - 18) =      5.34063  eV     1   --> A              
     e( 19 - 19) =      5.36424  eV     1   --> A              
     e( 20 - 20) =      5.74020  eV     1   --> A              
     e( 21 - 21) =      6.74736  eV     1   --> A              
     e( 22 - 22) =      6.78886  eV     1   --> A              
     e( 23 - 23) =      7.27300  eV     1   --> A              
     e( 24 - 24) =      8.05162  eV     1   --> A              
     e( 25 - 25) =      8.68288  eV     1   --> A              
     e( 26 - 26) =      8.72949  eV     1   --> A              
     e( 27 - 27) =      9.33243  eV     1   --> A              
     e( 28 - 28) =     10.09285  eV     1   --> A              
     e( 29 - 29) =     10.83868  eV     1   --> A              
     e( 30 - 30) =     10.87594  eV     1   --> A              
     e( 31 - 31) =     11.54687  eV     1   --> A              
     e( 32 - 32) =     12.45985  eV     1   --> A              
     e( 33 - 33) =     12.77578  eV     1   --> A              
     e( 34 - 34) =     13.01566  eV     1   --> A              
     e( 35 - 35) =     13.03518  eV     1   --> A              
     e( 36 - 36) =     14.07196  eV     1   --> A              

 **************************************************************************

 **************************************************************************

                    xk=(   0.03850,  -0.02217,   0.00000  )

     Band symmetry, C_1 (1)     point group:

     e(  1 -  1) =    -21.64512  eV     1   --> A              
     e(  2 -  2) =    -15.98075  eV     1   --> A              
     e(  3 -  3) =     -8.48120  eV     1   --> A              
     e(  4 -  4) =     -6.61134  eV     1   --> A              
     e(  5 -  5) =     -6.55651  eV     1   --> A              
     e(  6 -  6) =     -6.40378  eV     1   --> A              
     e(  7 -  7) =     -3.78391  eV     1   --> A              
     e(  8 -  8) =     -2.27361  eV     1   --> A              
     e(  9 -  9) =     -2.17563  eV     1   --> A              
     e( 10 - 10) =     -0.58782  eV     1   --> A              
     e( 11 - 11) =      2.24040  eV     1   --> A              
     e( 12 - 12) =      3.00878  eV     1   --> A              
     e( 13 - 13) =      3.10959  eV     1   --> A              
     e( 14 - 14) =      3.92403  eV     1   --> A              
     e( 15 - 15) =      4.06837  eV     1   --> A              
     e( 16 - 16) =      4.43837  eV     1   --> A              
     e( 17 - 17) =      5.19134  eV     1   --> A              
     e( 18 - 18) =      5.36805  eV     1   --> A              
     e( 19 - 19) =      5.39289  eV     1   --> A              
     e( 20 - 20) =      5.76140  eV     1   --> A              
     e( 21 - 21) =      6.63482  eV     1   --> A              
     e( 22 - 22) =      6.80354  eV     1   --> A              
     e( 23 - 23) =      7.27518  eV     1   --> A              
     e( 24 - 24) =      8.09349  eV     1   --> A              
     e( 25 - 25) =      8.53031  eV     1   --> A              
     e( 26 - 26) =      8.69230  eV     1   --> A              
     e( 27 - 27) =      9.43623  eV     1   --> A              
     e( 28 - 28) =     10.13690  eV     1   --> A              
     e( 29 - 29) =     10.76892  eV     1   --> A              
     e( 30 - 30) =     10.91110  eV     1   --> A              
     e( 31 - 31) =     11.60832  eV     1   --> A              
     e( 32 - 32) =     12.56433  eV     1   --> A              
     e( 33 - 33) =     12.81144  eV     1   --> A              
     e( 34 - 34) =     12.98080  eV     1   --> A              
     e( 35 - 35) =     13.05036  eV     1   --> A              
     e( 36 - 36) =     14.10635  eV     1   --> A              

 **************************************************************************

 **************************************************************************

                    xk=(   0.05775,  -0.03325,   0.00000  )

     Band symmetry, C_1 (1)     point group:

     e(  1 -  1) =    -21.63619  eV     1   --> A              
     e(  2 -  2) =    -15.95657  eV     1   --> A              
     e(  3 -  3) =     -8.46252  eV     1   --> A              
     e(  4 -  4) =     -6.68202  eV     1   --> A              
     e(  5 -  5) =     -6.56729  eV     1   --> A              
     e(  6 -  6) =     -6.38583  eV     1   --> A              
     e(  7 -  7) =     -3.74195  eV     1   --> A              
     e(  8 -  8) =     -2.42936  eV     1   --> A              
     e(  9 -  9) =     -2.21374  eV     1   --> A              
     e( 10 - 10) =     -0.52520  eV     1   --> A              
     e( 11 - 11) =      2.27006  eV     1   --> A              
     e( 12 - 12) =      3.03818  eV     1   --> A              
     e( 13 - 13) =      3.14364  eV     1   --> A              
     e( 14 - 14) =      3.95769  eV     1   --> A              
     e( 15 - 15) =      4.10518  eV     1   --> A              
     e( 16 - 16) =      4.53353  eV     1   --> A              
     e( 17 - 17) =      5.06536  eV     1   --> A              
     e( 18 - 18) =      5.38910  eV     1   --> A              
     e( 19 - 19) =      5.45329  eV     1   --> A              
     e( 20 - 20) =      5.79472  eV     1   --> A              
     e( 21 - 21) =      6.47247  eV     1   --> A              
     e( 22 - 22) =      6.83284  eV     1   --> A              
     e( 23 - 23) =      7.27466  eV     1   --> A              
     e( 24 - 24) =      8.14831  eV     1   --> A              
     e( 25 - 25) =      8.34633  eV     1   --> A              
     e( 26 - 26) =      8.63177  eV     1   --> A              
     e( 27 - 27) =      9.55191  eV     1   --> A              
     e( 28 - 28) =     10.19770  eV     1   --> A              
     e( 29 - 29) =     10.68712  eV     1   --> A              
     e( 30 - 30) =     10.95311  eV     1   --> A              
     e( 31 - 31) =     11.70658  eV     1   --> A              
     e( 32 - 32) =     12.68606  eV     1   --> A              
     e( 33 - 33) =     12.78320  eV     1   --> A              
     e( 34 - 34) =     12.99785  eV     1   --> A              
     e( 35 - 35) =     13.13577  eV     1   --> A              
     e( 36 - 36) =     14.14402  eV     1   --> A              

 **************************************************************************

 **************************************************************************

                    xk=(   0.07701,  -0.04434,   0.00000  )

     Band symmetry, C_1 (1)     point group:

     e(  1 -  1) =    -21.62384  eV     1   --> A              
     e(  2 -  2) =    -15.92286  eV     1   --> A              
     e(  3 -  3) =     -8.43752  eV     1   --> A              
     e(  4 -  4) =     -6.77301  eV     1   --> A              
     e(  5 -  5) =     -6.58247  eV     1   --> A              
     e(  6 -  6) =     -6.36141  eV     1   --> A              
     e(  7 -  7) =     -3.68911  eV     1   --> A              
     e(  8 -  8) =     -2.63024  eV     1   --> A              
     e(  9 -  9) =     -2.26737  eV     1   --> A              
     e( 10 - 10) =     -0.44076  eV     1   --> A              
     e( 11 - 11) =      2.31094  eV     1   --> A              
     e( 12 - 12) =      3.07815  eV     1   --> A              
     e( 13 - 13) =      3.19083  eV     1   --> A              
     e( 14 - 14) =      4.00221  eV     1   --> A              
     e( 15 - 15) =      4.14396  eV     1   --> A              
     e( 16 - 16) =      4.64180  eV     1   --> A              
     e( 17 - 17) =      4.92081  eV     1   --> A              
     e( 18 - 18) =      5.40540  eV     1   --> A              
     e( 19 - 19) =      5.53854  eV     1   --> A              
     e( 20 - 20) =      5.83861  eV     1   --> A              
     e( 21 - 21) =      6.28799  eV     1   --> A              
     e( 22 - 22) =      6.87807  eV     1   --> A              
     e( 23 - 23) =      7.26667  eV     1   --> A              
     e( 24 - 24) =      8.16625  eV     1   --> A              
     e( 25 - 25) =      8.21112  eV     1   --> A              
     e( 26 - 26) =      8.55201  eV     1   --> A              
     e( 27 - 27) =      9.64452  eV     1   --> A              
     e( 28 - 28) =     10.27347  eV     1   --> A              
     e( 29 - 29) =     10.62354  eV     1   --> A              
     e( 30 - 30) =     10.98337  eV     1   --> A              
     e( 31 - 31) =     11.84027  eV     1   --> A              
     e( 32 - 32) =     12.65359  eV     1   --> A              
     e( 33 - 33) =     12.80575  eV     1   --> A              
     e( 34 - 34) =     13.07867  eV     1   --> A              
     e( 35 - 35) =     13.32763  eV     1   --> A              
     e( 36 - 36) =     14.18508  eV     1   --> A              

 **************************************************************************

 **************************************************************************

                    xk=(   0.09626,  -0.05542,   0.00000  )

     Band symmetry, C_1 (1)     point group:

     e(  1 -  1) =    -21.60820  eV     1   --> A              
     e(  2 -  2) =    -15.87978  eV     1   --> A              
     e(  3 -  3) =     -8.40758  eV     1   --> A              
     e(  4 -  4) =     -6.87823  eV     1   --> A              
     e(  5 -  5) =     -6.60225  eV     1   --> A              
     e(  6 -  6) =     -6.33073  eV     1   --> A              
     e(  7 -  7) =     -3.63110  eV     1   --> A              
     e(  8 -  8) =     -2.86285  eV     1   --> A              
     e(  9 -  9) =     -2.33691  eV     1   --> A              
     e( 10 - 10) =     -0.33658  eV     1   --> A              
     e( 11 - 11) =      2.36237  eV     1   --> A              
     e( 12 - 12) =      3.12765  eV     1   --> A              
     e( 13 - 13) =      3.25080  eV     1   --> A              
     e( 14 - 14) =      4.05406  eV     1   --> A              
     e( 15 - 15) =      4.18112  eV     1   --> A              
     e( 16 - 16) =      4.65695  eV     1   --> A              
     e( 17 - 17) =      4.86152  eV     1   --> A              
     e( 18 - 18) =      5.41465  eV     1   --> A              
     e( 19 - 19) =      5.62752  eV     1   --> A              
     e( 20 - 20) =      5.88527  eV     1   --> A              
     e( 21 - 21) =      6.11146  eV     1   --> A              
     e( 22 - 22) =      6.94840  eV     1   --> A              
     e( 23 - 23) =      7.24998  eV     1   --> A              
     e( 24 - 24) =      8.02296  eV     1   --> A              
     e( 25 - 25) =      8.26068  eV     1   --> A              
     e( 26 - 26) =      8.47386  eV     1   --> A              
     e( 27 - 27) =      9.69080  eV     1   --> A              
     e( 28 - 28) =     10.36522  eV     1   --> A              
     e( 29 - 29) =     10.59218  eV     1   --> A              
     e( 30 - 30) =     10.99132  eV     1   --> A              
     e( 31 - 31) =     12.00454  eV     1   --> A              
     e( 32 - 32) =     12.55079  eV     1   --> A              
     e( 33 - 33) =     12.82959  eV     1   --> A              
     e( 34 - 34) =     13.21215  eV     1   --> A              
     e( 35 - 35) =     13.58418  eV     1   --> A              
     e( 36 - 36) =     14.24622  eV     1   --> A              

 **************************************************************************

 **************************************************************************

                    xk=(   0.11551,  -0.06651,   0.00000  )

     Band symmetry, C_1 (1)     point group:

     e(  1 -  1) =    -21.58946  eV     1   --> A              
     e(  2 -  2) =    -15.82753  eV     1   --> A              
     e(  3 -  3) =     -8.37488  eV     1   --> A              
     e(  4 -  4) =     -6.99089  eV     1   --> A              
     e(  5 -  5) =     -6.62680  eV     1   --> A              
     e(  6 -  6) =     -6.29409  eV     1   --> A              
     e(  7 -  7) =     -3.57983  eV     1   --> A              
     e(  8 -  8) =     -3.10821  eV     1   --> A              
     e(  9 -  9) =     -2.42266  eV     1   --> A              
     e( 10 - 10) =     -0.21467  eV     1   --> A              
     e( 11 - 11) =      2.42351  eV     1   --> A              
     e( 12 - 12) =      3.18505  eV     1   --> A              
     e( 13 - 13) =      3.32294  eV     1   --> A              
     e( 14 - 14) =      4.09775  eV     1   --> A              
     e( 15 - 15) =      4.21220  eV     1   --> A              
     e( 16 - 16) =      4.52501  eV     1   --> A              
     e( 17 - 17) =      4.95787  eV     1   --> A              
     e( 18 - 18) =      5.40536  eV     1   --> A              
     e( 19 - 19) =      5.67943  eV     1   --> A              
     e( 20 - 20) =      5.86729  eV     1   --> A              
     e( 21 - 21) =      6.03945  eV     1   --> A              
     e( 22 - 22) =      7.06127  eV     1   --> A              
     e( 23 - 23) =      7.23322  eV     1   --> A              
     e( 24 - 24) =      7.90354  eV     1   --> A              
     e( 25 - 25) =      8.28156  eV     1   --> A              
     e( 26 - 26) =      8.45141  eV     1   --> A              
     e( 27 - 27) =      9.69149  eV     1   --> A              
     e( 28 - 28) =     10.46120  eV     1   --> A              
     e( 29 - 29) =     10.58915  eV     1   --> A              
     e( 30 - 30) =     10.97767  eV     1   --> A              
     e( 31 - 31) =     12.17759  eV     1   --> A              
     e( 32 - 32) =     12.47281  eV     1   --> A              
     e( 33 - 33) =     12.84249  eV     1   --> A              
     e( 34 - 34) =     13.34529  eV     1   --> A              
     e( 35 - 35) =     13.84179  eV     1   --> A              
     e( 36 - 36) =     14.37136  eV     1   --> A              

 **************************************************************************

 **************************************************************************

                    xk=(   0.13476,  -0.07759,   0.00000  )

     Band symmetry, C_1 (1)     point group:

     e(  1 -  1) =    -21.56784  eV     1   --> A              
     e(  2 -  2) =    -15.76636  eV     1   --> A              
     e(  3 -  3) =     -8.34285  eV     1   --> A              
     e(  4 -  4) =     -7.10346  eV     1   --> A              
     e(  5 -  5) =     -6.65631  eV     1   --> A              
     e(  6 -  6) =     -6.25195  eV     1   --> A              
     e(  7 -  7) =     -3.59120  eV     1   --> A              
     e(  8 -  8) =     -3.30420  eV     1   --> A              
     e(  9 -  9) =     -2.52475  eV     1   --> A              
     e( 10 - 10) =     -0.07710  eV     1   --> A              
     e( 11 - 11) =      2.49313  eV     1   --> A              
     e( 12 - 12) =      3.24699  eV     1   --> A              
     e( 13 - 13) =      3.40588  eV     1   --> A              
     e( 14 - 14) =      4.06348  eV     1   --> A              
     e( 15 - 15) =      4.25012  eV     1   --> A              
     e( 16 - 16) =      4.44411  eV     1   --> A              
     e( 17 - 17) =      5.07215  eV     1   --> A              
     e( 18 - 18) =      5.35908  eV     1   --> A              
     e( 19 - 19) =      5.62084  eV     1   --> A              
     e( 20 - 20) =      5.82147  eV     1   --> A              
     e( 21 - 21) =      6.10410  eV     1   --> A              
     e( 22 - 22) =      7.20685  eV     1   --> A              
     e( 23 - 23) =      7.24649  eV     1   --> A              
     e( 24 - 24) =      7.79148  eV     1   --> A              
     e( 25 - 25) =      8.29411  eV     1   --> A              
     e( 26 - 26) =      8.50370  eV     1   --> A              
     e( 27 - 27) =      9.66223  eV     1   --> A              
     e( 28 - 28) =     10.51219  eV     1   --> A              
     e( 29 - 29) =     10.62559  eV     1   --> A              
     e( 30 - 30) =     10.95762  eV     1   --> A              
     e( 31 - 31) =     12.27579  eV     1   --> A              
     e( 32 - 32) =     12.48978  eV     1   --> A              
     e( 33 - 33) =     12.88152  eV     1   --> A              
     e( 34 - 34) =     13.44482  eV     1   --> A              
     e( 35 - 35) =     14.03923  eV     1   --> A              
     e( 36 - 36) =     14.59745  eV     1   --> A              

 **************************************************************************

 **************************************************************************

                    xk=(   0.15401,  -0.08868,   0.00000  )

     Band symmetry, C_1 (1)     point group:

     e(  1 -  1) =    -21.54359  eV     1   --> A              
     e(  2 -  2) =    -15.69658  eV     1   --> A              
     e(  3 -  3) =     -8.31664  eV     1   --> A              
     e(  4 -  4) =     -7.20726  eV     1   --> A              
     e(  5 -  5) =     -6.69101  eV     1   --> A              
     e(  6 -  6) =     -6.20495  eV     1   --> A              
     e(  7 -  7) =     -3.78275  eV     1   --> A              
     e(  8 -  8) =     -3.32785  eV     1   --> A              
     e(  9 -  9) =     -2.64309  eV     1   --> A              
     e( 10 - 10) =      0.07403  eV     1   --> A              
     e( 11 - 11) =      2.56943  eV     1   --> A              
     e( 12 - 12) =      3.30396  eV     1   --> A              
     e( 13 - 13) =      3.49592  eV     1   --> A              
     e( 14 - 14) =      3.92383  eV     1   --> A              
     e( 15 - 15) =      4.31019  eV     1   --> A              
     e( 16 - 16) =      4.46191  eV     1   --> A              
     e( 17 - 17) =      5.17444  eV     1   --> A              
     e( 18 - 18) =      5.26707  eV     1   --> A              
     e( 19 - 19) =      5.49383  eV     1   --> A              
     e( 20 - 20) =      5.83597  eV     1   --> A              
     e( 21 - 21) =      6.20019  eV     1   --> A              
     e( 22 - 22) =      7.21862  eV     1   --> A              
     e( 23 - 23) =      7.38120  eV     1   --> A              
     e( 24 - 24) =      7.74339  eV     1   --> A              
     e( 25 - 25) =      8.36543  eV     1   --> A              
     e( 26 - 26) =      8.58843  eV     1   --> A              
     e( 27 - 27) =      9.61581  eV     1   --> A              
     e( 28 - 28) =     10.46900  eV     1   --> A              
     e( 29 - 29) =     10.71513  eV     1   --> A              
     e( 30 - 30) =     10.95625  eV     1   --> A              
     e( 31 - 31) =     12.27221  eV     1   --> A              
     e( 32 - 32) =     12.58919  eV     1   --> A              
     e( 33 - 33) =     12.97002  eV     1   --> A              
     e( 34 - 34) =     13.51433  eV     1   --> A              
     e( 35 - 35) =     14.19483  eV     1   --> A              
     e( 36 - 36) =     14.68106  eV     1   --> A              

 **************************************************************************

 **************************************************************************

                    xk=(   0.17326,  -0.09976,   0.00000  )

     Band symmetry, C_1 (1)     point group:

     e(  1 -  1) =    -21.51700  eV     1   --> A              
     e(  2 -  2) =    -15.61857  eV     1   --> A              
     e(  3 -  3) =     -8.30348  eV     1   --> A              
     e(  4 -  4) =     -7.29220  eV     1   --> A              
     e(  5 -  5) =     -6.73108  eV     1   --> A              
     e(  6 -  6) =     -6.15410  eV     1   --> A              
     e(  7 -  7) =     -4.05437  eV     1   --> A              
     e(  8 -  8) =     -3.27437  eV     1   --> A              
     e(  9 -  9) =     -2.77725  eV     1   --> A              
     e( 10 - 10) =      0.23658  eV     1   --> A              
     e( 11 - 11) =      2.64943  eV     1   --> A              
     e( 12 - 12) =      3.32207  eV     1   --> A              
     e( 13 - 13) =      3.58051  eV     1   --> A              
     e( 14 - 14) =      3.79694  eV     1   --> A              
     e( 15 - 15) =      4.36587  eV     1   --> A              
     e( 16 - 16) =      4.52987  eV     1   --> A              
     e( 17 - 17) =      5.12945  eV     1   --> A              
     e( 18 - 18) =      5.23157  eV     1   --> A              
     e( 19 - 19) =      5.42296  eV     1   --> A              
     e( 20 - 20) =      5.87350  eV     1   --> A              
     e( 21 - 21) =      6.31205  eV     1   --> A              
     e( 22 - 22) =      7.17201  eV     1   --> A              
     e( 23 - 23) =      7.38586  eV     1   --> A              
     e( 24 - 24) =      7.89786  eV     1   --> A              
     e( 25 - 25) =      8.52351  eV     1   --> A              
     e( 26 - 26) =      8.69035  eV     1   --> A              
     e( 27 - 27) =      9.55782  eV     1   --> A              
     e( 28 - 28) =     10.36597  eV     1   --> A              
     e( 29 - 29) =     10.81548  eV     1   --> A              
     e( 30 - 30) =     10.98764  eV     1   --> A              
     e( 31 - 31) =     12.26567  eV     1   --> A              
     e( 32 - 32) =     12.66014  eV     1   --> A              
     e( 33 - 33) =     13.06619  eV     1   --> A              
     e( 34 - 34) =     13.60017  eV     1   --> A              
     e( 35 - 35) =     14.34364  eV     1   --> A              
     e( 36 - 36) =     14.56024  eV     1   --> A              

 **************************************************************************

 **************************************************************************

                    xk=(   0.19251,  -0.11085,   0.00000  )

     Band symmetry, C_1 (1)     point group:

     e(  1 -  1) =    -21.48840  eV     1   --> A              
     e(  2 -  2) =    -15.53279  eV     1   --> A              
     e(  3 -  3) =     -8.31147  eV     1   --> A              
     e(  4 -  4) =     -7.34793  eV     1   --> A              
     e(  5 -  5) =     -6.77672  eV     1   --> A              
     e(  6 -  6) =     -6.10088  eV     1   --> A              
     e(  7 -  7) =     -4.33758  eV     1   --> A              
     e(  8 -  8) =     -3.20782  eV     1   --> A              
     e(  9 -  9) =     -2.92610  eV     1   --> A              
     e( 10 - 10) =      0.40839  eV     1   --> A              
     e( 11 - 11) =      2.72690  eV     1   --> A              
     e( 12 - 12) =      3.23184  eV     1   --> A              
     e( 13 - 13) =      3.64403  eV     1   --> A              
     e( 14 - 14) =      3.80131  eV     1   --> A              
     e( 15 - 15) =      4.39550  eV     1   --> A              
     e( 16 - 16) =      4.61665  eV     1   --> A              
     e( 17 - 17) =      5.00764  eV     1   --> A              
     e( 18 - 18) =      5.16251  eV     1   --> A              
     e( 19 - 19) =      5.49376  eV     1   --> A              
     e( 20 - 20) =      5.92777  eV     1   --> A              
     e( 21 - 21) =      6.43811  eV     1   --> A              
     e( 22 - 22) =      7.03028  eV     1   --> A              
     e( 23 - 23) =      7.39601  eV     1   --> A              
     e( 24 - 24) =      8.10807  eV     1   --> A              
     e( 25 - 25) =      8.76935  eV     1   --> A              
     e( 26 - 26) =      8.82321  eV     1   --> A              
     e( 27 - 27) =      9.49058  eV     1   --> A              
     e( 28 - 28) =     10.23505  eV     1   --> A              
     e( 29 - 29) =     10.91033  eV     1   --> A              
     e( 30 - 30) =     11.05421  eV     1   --> A              
     e( 31 - 31) =     12.27618  eV     1   --> A              
     e( 32 - 32) =     12.70483  eV     1   --> A              
     e( 33 - 33) =     13.09961  eV     1   --> A              
     e( 34 - 34) =     13.72656  eV     1   --> A              
     e( 35 - 35) =     14.37959  eV     1   --> A              
     e( 36 - 36) =     14.53107  eV     1   --> A              

 **************************************************************************

 **************************************************************************

                    xk=(   0.21177,  -0.12193,   0.00000  )

     Band symmetry, C_1 (1)     point group:

     e(  1 -  1) =    -21.45814  eV     1   --> A              
     e(  2 -  2) =    -15.43977  eV     1   --> A              
     e(  3 -  3) =     -8.34600  eV     1   --> A              
     e(  4 -  4) =     -7.36748  eV     1   --> A              
     e(  5 -  5) =     -6.82810  eV     1   --> A              
     e(  6 -  6) =     -6.04796  eV     1   --> A              
     e(  7 -  7) =     -4.61565  eV     1   --> A              
     e(  8 -  8) =     -3.14726  eV     1   --> A              
     e(  9 -  9) =     -3.08091  eV     1   --> A              
     e( 10 - 10) =      0.58730  eV     1   --> A              
     e( 11 - 11) =      2.77857  eV     1   --> A              
     e( 12 - 12) =      3.06915  eV     1   --> A              
     e( 13 - 13) =      3.71978  eV     1   --> A              
     e( 14 - 14) =      3.88478  eV     1   --> A              
     e( 15 - 15) =      4.37892  eV     1   --> A              
     e( 16 - 16) =      4.69312  eV     1   --> A              
     e( 17 - 17) =      4.95298  eV     1   --> A              
     e( 18 - 18) =      5.08998  eV     1   --> A              
     e( 19 - 19) =      5.61322  eV     1   --> A              
     e( 20 - 20) =      5.99572  eV     1   --> A              
     e( 21 - 21) =      6.57742  eV     1   --> A              
     e( 22 - 22) =      6.84853  eV     1   --> A              
     e( 23 - 23) =      7.43709  eV     1   --> A              
     e( 24 - 24) =      8.28073  eV     1   --> A              
     e( 25 - 25) =      8.92091  eV     1   --> A              
     e( 26 - 26) =      9.12911  eV     1   --> A              
     e( 27 - 27) =      9.43474  eV     1   --> A              
     e( 28 - 28) =     10.10818  eV     1   --> A              
     e( 29 - 29) =     10.99279  eV     1   --> A              
     e( 30 - 30) =     11.15688  eV     1   --> A              
     e( 31 - 31) =     12.29843  eV     1   --> A              
     e( 32 - 32) =     12.73114  eV     1   --> A              
     e( 33 - 33) =     13.08309  eV     1   --> A              
     e( 34 - 34) =     13.79082  eV     1   --> A              
     e( 35 - 35) =     14.30993  eV     1   --> A              
     e( 36 - 36) =     14.69078  eV     1   --> A              

 **************************************************************************

 **************************************************************************

                    xk=(   0.23102,  -0.13302,   0.00000  )

     Band symmetry, C_1 (1)     point group:

     e(  1 -  1) =    -21.42661  eV     1   --> A              
     e(  2 -  2) =    -15.34013  eV     1   --> A              
     e(  3 -  3) =     -8.40595  eV     1   --> A              
     e(  4 -  4) =     -7.35110  eV     1   --> A              
     e(  5 -  5) =     -6.88533  eV     1   --> A              
     e(  6 -  6) =     -6.00036  eV     1   --> A              
     e(  7 -  7) =     -4.87763  eV     1   --> A              
     e(  8 -  8) =     -3.27291  eV     1   --> A              
     e(  9 -  9) =     -3.06353  eV     1   --> A              
     e( 10 - 10) =      0.77102  eV     1   --> A              
     e( 11 - 11) =      2.70000  eV     1   --> A              
     e( 12 - 12) =      2.99818  eV     1   --> A              
     e( 13 - 13) =      3.79862  eV     1   --> A              
     e( 14 - 14) =      3.95271  eV     1   --> A              
     e( 15 - 15) =      4.34624  eV     1   --> A              
     e( 16 - 16) =      4.74744  eV     1   --> A              
     e( 17 - 17) =      4.96111  eV     1   --> A              
     e( 18 - 18) =      5.09330  eV     1   --> A              
     e( 19 - 19) =      5.74704  eV     1   --> A              
     e( 20 - 20) =      6.07531  eV     1   --> A              
     e( 21 - 21) =      6.65996  eV     1   --> A              
     e( 22 - 22) =      6.73446  eV     1   --> A              
     e( 23 - 23) =      7.49094  eV     1   --> A              
     e( 24 - 24) =      8.41252  eV     1   --> A              
     e( 25 - 25) =      9.05740  eV     1   --> A              
     e( 26 - 26) =      9.23633  eV     1   --> A              
     e( 27 - 27) =      9.61994  eV     1   --> A              
     e( 28 - 28) =     10.02928  eV     1   --> A              
     e( 29 - 29) =     11.06975  eV     1   --> A              
     e( 30 - 30) =     11.28755  eV     1   --> A              
     e( 31 - 31) =     12.31884  eV     1   --> A              
     e( 32 - 32) =     12.73181  eV     1   --> A              
     e( 33 - 33) =     13.05773  eV     1   --> A              
     e( 34 - 34) =     13.69119  eV     1   --> A              
     e( 35 - 35) =     14.37903  eV     1   --> A              
     e( 36 - 36) =     14.49788  eV     1   --> A              

 **************************************************************************

 **************************************************************************

                    xk=(   0.25027,  -0.14410,   0.00000  )

     Band symmetry, C_1 (1)     point group:

     e(  1 -  1) =    -21.39418  eV     1   --> A              
     e(  2 -  2) =    -15.23461  eV     1   --> A              
     e(  3 -  3) =     -8.48433  eV     1   --> A              
     e(  4 -  4) =     -7.30569  eV     1   --> A              
     e(  5 -  5) =     -6.94845  eV     1   --> A              
     e(  6 -  6) =     -5.96873  eV     1   --> A              
     e(  7 -  7) =     -5.10868  eV     1   --> A              
     e(  8 -  8) =     -3.45995  eV     1   --> A              
     e(  9 -  9) =     -2.99892  eV     1   --> A              
     e( 10 - 10) =      0.95694  eV     1   --> A              
     e( 11 - 11) =      2.49053  eV     1   --> A              
     e( 12 - 12) =      3.04061  eV     1   --> A              
     e( 13 - 13) =      3.78504  eV     1   --> A              
     e( 14 - 14) =      4.01361  eV     1   --> A              
     e( 15 - 15) =      4.39777  eV     1   --> A              
     e( 16 - 16) =      4.79493  eV     1   --> A              
     e( 17 - 17) =      4.95807  eV     1   --> A              
     e( 18 - 18) =      5.20966  eV     1   --> A              
     e( 19 - 19) =      5.88967  eV     1   --> A              
     e( 20 - 20) =      6.16419  eV     1   --> A              
     e( 21 - 21) =      6.49416  eV     1   --> A              
     e( 22 - 22) =      6.89579  eV     1   --> A              
     e( 23 - 23) =      7.55287  eV     1   --> A              
     e( 24 - 24) =      8.48976  eV     1   --> A              
     e( 25 - 25) =      9.15223  eV     1   --> A              
     e( 26 - 26) =      9.21899  eV     1   --> A              
     e( 27 - 27) =      9.80630  eV     1   --> A              
     e( 28 - 28) =     10.18566  eV     1   --> A              
     e( 29 - 29) =     11.14980  eV     1   --> A              
     e( 30 - 30) =     11.43940  eV     1   --> A              
     e( 31 - 31) =     12.31671  eV     1   --> A              
     e( 32 - 32) =     12.69578  eV     1   --> A              
     e( 33 - 33) =     13.04798  eV     1   --> A              
     e( 34 - 34) =     13.53301  eV     1   --> A              
     e( 35 - 35) =     14.19167  eV     1   --> A              
     e( 36 - 36) =     14.46803  eV     1   --> A              

 **************************************************************************

 **************************************************************************

                    xk=(   0.26952,  -0.15519,   0.00000  )

     Band symmetry, C_1 (1)     point group:

     e(  1 -  1) =    -21.36128  eV     1   --> A              
     e(  2 -  2) =    -15.12407  eV     1   --> A              
     e(  3 -  3) =     -8.57254  eV     1   --> A              
     e(  4 -  4) =     -7.24096  eV     1   --> A              
     e(  5 -  5) =     -7.01741  eV     1   --> A              
     e(  6 -  6) =     -5.97471  eV     1   --> A              
     e(  7 -  7) =     -5.28300  eV     1   --> A              
     e(  8 -  8) =     -3.65794  eV     1   --> A              
     e(  9 -  9) =     -2.93699  eV     1   --> A              
     e( 10 - 10) =      1.14152  eV     1   --> A              
     e( 11 - 11) =      2.25489  eV     1   --> A              
     e( 12 - 12) =      3.09736  eV     1   --> A              
     e( 13 - 13) =      3.64966  eV     1   --> A              
     e( 14 - 14) =      4.12987  eV     1   --> A              
     e( 15 - 15) =      4.52551  eV     1   --> A              
     e( 16 - 16) =      4.82645  eV     1   --> A              
     e( 17 - 17) =      4.99384  eV     1   --> A              
     e( 18 - 18) =      5.37277  eV     1   --> A              
     e( 19 - 19) =      6.03609  eV     1   --> A              
     e( 20 - 20) =      6.24424  eV     1   --> A              
     e( 21 - 21) =      6.37235  eV     1   --> A              
     e( 22 - 22) =      7.06891  eV     1   --> A              
     e( 23 - 23) =      7.62257  eV     1   --> A              
     e( 24 - 24) =      8.47324  eV     1   --> A              
     e( 25 - 25) =      9.14137  eV     1   --> A              
     e( 26 - 26) =      9.36396  eV     1   --> A              
     e( 27 - 27) =      9.79622  eV     1   --> A              
     e( 28 - 28) =     10.56159  eV     1   --> A              
     e( 29 - 29) =     11.23438  eV     1   --> A              
     e( 30 - 30) =     11.61584  eV     1   --> A              
     e( 31 - 31) =     12.26630  eV     1   --> A              
     e( 32 - 32) =     12.63059  eV     1   --> A              
     e( 33 - 33) =     13.05126  eV     1   --> A              
     e( 34 - 34) =     13.40599  eV     1   --> A              
     e( 35 - 35) =     13.92937  eV     1   --> A              
     e( 36 - 36) =     14.17927  eV     1   --> A              

 **************************************************************************

 **************************************************************************

                    xk=(   0.28877,  -0.16627,   0.00000  )

     Band symmetry, C_1 (1)     point group:

     e(  1 -  1) =    -21.32833  eV     1   --> A              
     e(  2 -  2) =    -15.00948  eV     1   --> A              
     e(  3 -  3) =     -8.66334  eV     1   --> A              
     e(  4 -  4) =     -7.16755  eV     1   --> A              
     e(  5 -  5) =     -7.09176  eV     1   --> A              
     e(  6 -  6) =     -6.04325  eV     1   --> A              
     e(  7 -  7) =     -5.37036  eV     1   --> A              
     e(  8 -  8) =     -3.86412  eV     1   --> A              
     e(  9 -  9) =     -2.87972  eV     1   --> A              
     e( 10 - 10) =      1.31838  eV     1   --> A              
     e( 11 - 11) =      2.01972  eV     1   --> A              
     e( 12 - 12) =      3.14539  eV     1   --> A              
     e( 13 - 13) =      3.48502  eV     1   --> A              
     e( 14 - 14) =      4.26888  eV     1   --> A              
     e( 15 - 15) =      4.66257  eV     1   --> A              
     e( 16 - 16) =      4.86376  eV     1   --> A              
     e( 17 - 17) =      5.07891  eV     1   --> A              
     e( 18 - 18) =      5.55775  eV     1   --> A              
     e( 19 - 19) =      6.13296  eV     1   --> A              
     e( 20 - 20) =      6.25355  eV     1   --> A              
     e( 21 - 21) =      6.41995  eV     1   --> A              
     e( 22 - 22) =      7.24574  eV     1   --> A              
     e( 23 - 23) =      7.70109  eV     1   --> A              
     e( 24 - 24) =      8.36282  eV     1   --> A              
     e( 25 - 25) =      9.20195  eV     1   --> A              
     e( 26 - 26) =      9.51149  eV     1   --> A              
     e( 27 - 27) =      9.78848  eV     1   --> A              
     e( 28 - 28) =     10.89509  eV     1   --> A              
     e( 29 - 29) =     11.31134  eV     1   --> A              
     e( 30 - 30) =     11.82852  eV     1   --> A              
     e( 31 - 31) =     12.15969  eV     1   --> A              
     e( 32 - 32) =     12.56910  eV     1   --> A              
     e( 33 - 33) =     13.02186  eV     1   --> A              
     e( 34 - 34) =     13.37331  eV     1   --> A              
     e( 35 - 35) =     13.64170  eV     1   --> A              
     e( 36 - 36) =     13.88648  eV     1   --> A              

 **************************************************************************

 **************************************************************************

                    xk=(   0.30802,  -0.17736,   0.00000  )

     Band symmetry, C_1 (1)     point group:

     e(  1 -  1) =    -21.29574  eV     1   --> A              
     e(  2 -  2) =    -14.89200  eV     1   --> A              
     e(  3 -  3) =     -8.75136  eV     1   --> A              
     e(  4 -  4) =     -7.17375  eV     1   --> A              
     e(  5 -  5) =     -7.09499  eV     1   --> A              
     e(  6 -  6) =     -6.16242  eV     1   --> A              
     e(  7 -  7) =     -5.37432  eV     1   --> A              
     e(  8 -  8) =     -4.07641  eV     1   --> A              
     e(  9 -  9) =     -2.82826  eV     1   --> A              
     e( 10 - 10) =      1.46592  eV     1   --> A              
     e( 11 - 11) =      1.80827  eV     1   --> A              
     e( 12 - 12) =      3.17685  eV     1   --> A              
     e( 13 - 13) =      3.33215  eV     1   --> A              
     e( 14 - 14) =      4.41014  eV     1   --> A              
     e( 15 - 15) =      4.73462  eV     1   --> A              
     e( 16 - 16) =      4.98834  eV     1   --> A              
     e( 17 - 17) =      5.19449  eV     1   --> A              
     e( 18 - 18) =      5.75626  eV     1   --> A              
     e( 19 - 19) =      6.08091  eV     1   --> A              
     e( 20 - 20) =      6.38961  eV     1   --> A              
     e( 21 - 21) =      6.54767  eV     1   --> A              
     e( 22 - 22) =      7.40913  eV     1   --> A              
     e( 23 - 23) =      7.79090  eV     1   --> A              
     e( 24 - 24) =      8.22205  eV     1   --> A              
     e( 25 - 25) =      9.29291  eV     1   --> A              
     e( 26 - 26) =      9.62102  eV     1   --> A              
     e( 27 - 27) =      9.84399  eV     1   --> A              
     e( 28 - 28) =     11.11429  eV     1   --> A              
     e( 29 - 29) =     11.33608  eV     1   --> A              
     e( 30 - 30) =     11.99225  eV     1   --> A              
     e( 31 - 31) =     12.11975  eV     1   --> A              
     e( 32 - 32) =     12.52437  eV     1   --> A              
     e( 33 - 33) =     12.96735  eV     1   --> A              
     e( 34 - 34) =     13.28261  eV     1   --> A              
     e( 35 - 35) =     13.46382  eV     1   --> A              
     e( 36 - 36) =     13.58082  eV     1   --> A              

 **************************************************************************

 **************************************************************************

                    xk=(   0.32728,  -0.18844,   0.00000  )

     Band symmetry, C_1 (1)     point group:

     e(  1 -  1) =    -21.26393  eV     1   --> A              
     e(  2 -  2) =    -14.77291  eV     1   --> A              
     e(  3 -  3) =     -8.83289  eV     1   --> A              
     e(  4 -  4) =     -7.25909  eV     1   --> A              
     e(  5 -  5) =     -7.04452  eV     1   --> A              
     e(  6 -  6) =     -6.28404  eV     1   --> A              
     e(  7 -  7) =     -5.32841  eV     1   --> A              
     e(  8 -  8) =     -4.29284  eV     1   --> A              
     e(  9 -  9) =     -2.78352  eV     1   --> A              
     e( 10 - 10) =      1.45185  eV     1   --> A              
     e( 11 - 11) =      1.74889  eV     1   --> A              
     e( 12 - 12) =      3.16316  eV     1   --> A              
     e( 13 - 13) =      3.23668  eV     1   --> A              
     e( 14 - 14) =      4.51365  eV     1   --> A              
     e( 15 - 15) =      4.79065  eV     1   --> A              
     e( 16 - 16) =      5.18563  eV     1   --> A              
     e( 17 - 17) =      5.33101  eV     1   --> A              
     e( 18 - 18) =      5.94763  eV     1   --> A              
     e( 19 - 19) =      6.05568  eV     1   --> A              
     e( 20 - 20) =      6.55694  eV     1   --> A              
     e( 21 - 21) =      6.69850  eV     1   --> A              
     e( 22 - 22) =      7.50597  eV     1   --> A              
     e( 23 - 23) =      7.90396  eV     1   --> A              
     e( 24 - 24) =      8.13103  eV     1   --> A              
     e( 25 - 25) =      9.35386  eV     1   --> A              
     e( 26 - 26) =      9.69400  eV     1   --> A              
     e( 27 - 27) =      9.98474  eV     1   --> A              
     e( 28 - 28) =     11.21949  eV     1   --> A              
     e( 29 - 29) =     11.25201  eV     1   --> A              
     e( 30 - 30) =     11.94011  eV     1   --> A              
     e( 31 - 31) =     12.29468  eV     1   --> A              
     e( 32 - 32) =     12.47938  eV     1   --> A              
     e( 33 - 33) =     12.94798  eV     1   --> A              
     e( 34 - 34) =     12.97463  eV     1   --> A              
     e( 35 - 35) =     13.24754  eV     1   --> A              
     e( 36 - 36) =     13.32374  eV     1   --> A              

 **************************************************************************

 **************************************************************************

                    xk=(   0.34653,  -0.19953,   0.00000  )

     Band symmetry, C_1 (1)     point group:

     e(  1 -  1) =    -21.23330  eV     1   --> A              
     e(  2 -  2) =    -14.65368  eV     1   --> A              
     e(  3 -  3) =     -8.90531  eV     1   --> A              
     e(  4 -  4) =     -7.34977  eV     1   --> A              
     e(  5 -  5) =     -7.03751  eV     1   --> A              
     e(  6 -  6) =     -6.36198  eV     1   --> A              
     e(  7 -  7) =     -5.25700  eV     1   --> A              
     e(  8 -  8) =     -4.51144  eV     1   --> A              
     e(  9 -  9) =     -2.74624  eV     1   --> A              
     e( 10 - 10) =      1.26053  eV     1   --> A              
     e( 11 - 11) =      1.84969  eV     1   --> A              
     e( 12 - 12) =      3.08902  eV     1   --> A              
     e( 13 - 13) =      3.22902  eV     1   --> A              
     e( 14 - 14) =      4.52831  eV     1   --> A              
     e( 15 - 15) =      4.92094  eV     1   --> A              
     e( 16 - 16) =      5.41025  eV     1   --> A              
     e( 17 - 17) =      5.48443  eV     1   --> A              
     e( 18 - 18) =      6.00588  eV     1   --> A              
     e( 19 - 19) =      6.21165  eV     1   --> A              
     e( 20 - 20) =      6.73146  eV     1   --> A              
     e( 21 - 21) =      6.86774  eV     1   --> A              
     e( 22 - 22) =      7.47016  eV     1   --> A              
     e( 23 - 23) =      8.06113  eV     1   --> A              
     e( 24 - 24) =      8.15664  eV     1   --> A              
     e( 25 - 25) =      9.34741  eV     1   --> A              
     e( 26 - 26) =      9.79233  eV     1   --> A              
     e( 27 - 27) =     10.16058  eV     1   --> A              
     e( 28 - 28) =     11.06282  eV     1   --> A              
     e( 29 - 29) =     11.24483  eV     1   --> A              
     e( 30 - 30) =     11.92260  eV     1   --> A              
     e( 31 - 31) =     12.32302  eV     1   --> A              
     e( 32 - 32) =     12.41819  eV     1   --> A              
     e( 33 - 33) =     12.68295  eV     1   --> A              
     e( 34 - 34) =     12.83677  eV     1   --> A              
     e( 35 - 35) =     12.92796  eV     1   --> A              
     e( 36 - 36) =     13.20239  eV     1   --> A              

 **************************************************************************

 **************************************************************************

                    xk=(   0.36578,  -0.21061,   0.00000  )

     Band symmetry, C_1 (1)     point group:

     e(  1 -  1) =    -21.20423  eV     1   --> A              
     e(  2 -  2) =    -14.53592  eV     1   --> A              
     e(  3 -  3) =     -8.96668  eV     1   --> A              
     e(  4 -  4) =     -7.44498  eV     1   --> A              
     e(  5 -  5) =     -7.08725  eV     1   --> A              
     e(  6 -  6) =     -6.37354  eV     1   --> A              
     e(  7 -  7) =     -5.17191  eV     1   --> A              
     e(  8 -  8) =     -4.72989  eV     1   --> A              
     e(  9 -  9) =     -2.71682  eV     1   --> A              
     e( 10 - 10) =      1.04773  eV     1   --> A              
     e( 11 - 11) =      1.94602  eV     1   --> A              
     e( 12 - 12) =      3.04643  eV     1   --> A              
     e( 13 - 13) =      3.23145  eV     1   --> A              
     e( 14 - 14) =      4.48355  eV     1   --> A              
     e( 15 - 15) =      5.10476  eV     1   --> A              
     e( 16 - 16) =      5.63607  eV     1   --> A              
     e( 17 - 17) =      5.66407  eV     1   --> A              
     e( 18 - 18) =      6.04888  eV     1   --> A              
     e( 19 - 19) =      6.42722  eV     1   --> A              
     e( 20 - 20) =      6.91178  eV     1   --> A              
     e( 21 - 21) =      7.05137  eV     1   --> A              
     e( 22 - 22) =      7.35807  eV     1   --> A              
     e( 23 - 23) =      8.21407  eV     1   --> A              
     e( 24 - 24) =      8.30897  eV     1   --> A              
     e( 25 - 25) =      9.29042  eV     1   --> A              
     e( 26 - 26) =      9.90334  eV     1   --> A              
     e( 27 - 27) =     10.33939  eV     1   --> A              
     e( 28 - 28) =     10.84213  eV     1   --> A              
     e( 29 - 29) =     11.21084  eV     1   --> A              
     e( 30 - 30) =     11.90816  eV     1   --> A              
     e( 31 - 31) =     12.10253  eV     1   --> A              
     e( 32 - 32) =     12.36770  eV     1   --> A              
     e( 33 - 33) =     12.45547  eV     1   --> A              
     e( 34 - 34) =     12.57915  eV     1   --> A              
     e( 35 - 35) =     12.68194  eV     1   --> A              
     e( 36 - 36) =     13.09860  eV     1   --> A              

 **************************************************************************

 **************************************************************************

                    xk=(   0.38503,  -0.22170,   0.00000  )

     Band symmetry, C_1 (1)     point group:

     e(  1 -  1) =    -21.17704  eV     1   --> A              
     e(  2 -  2) =    -14.42141  eV     1   --> A              
     e(  3 -  3) =     -9.01566  eV     1   --> A              
     e(  4 -  4) =     -7.54407  eV     1   --> A              
     e(  5 -  5) =     -7.17544  eV     1   --> A              
     e(  6 -  6) =     -6.33325  eV     1   --> A              
     e(  7 -  7) =     -5.08444  eV     1   --> A              
     e(  8 -  8) =     -4.94050  eV     1   --> A              
     e(  9 -  9) =     -2.69526  eV     1   --> A              
     e( 10 - 10) =      0.83817  eV     1   --> A              
     e( 11 - 11) =      2.00931  eV     1   --> A              
     e( 12 - 12) =      3.04420  eV     1   --> A              
     e( 13 - 13) =      3.24275  eV     1   --> A              
     e( 14 - 14) =      4.41412  eV     1   --> A              
     e( 15 - 15) =      5.31025  eV     1   --> A              
     e( 16 - 16) =      5.81674  eV     1   --> A              
     e( 17 - 17) =      5.90198  eV     1   --> A              
     e( 18 - 18) =      6.13448  eV     1   --> A              
     e( 19 - 19) =      6.62263  eV     1   --> A              
     e( 20 - 20) =      7.09492  eV     1   --> A              
     e( 21 - 21) =      7.22915  eV     1   --> A              
     e( 22 - 22) =      7.28893  eV     1   --> A              
     e( 23 - 23) =      8.34486  eV     1   --> A              
     e( 24 - 24) =      8.53376  eV     1   --> A              
     e( 25 - 25) =      9.21168  eV     1   --> A              
     e( 26 - 26) =      9.98556  eV     1   --> A              
     e( 27 - 27) =     10.44229  eV     1   --> A              
     e( 28 - 28) =     10.69345  eV     1   --> A              
     e( 29 - 29) =     11.16551  eV     1   --> A              
     e( 30 - 30) =     11.78453  eV     1   --> A              
     e( 31 - 31) =     11.88006  eV     1   --> A              
     e( 32 - 32) =     12.08372  eV     1   --> A              
     e( 33 - 33) =     12.23050  eV     1   --> A              
     e( 34 - 34) =     12.42008  eV     1   --> A              
     e( 35 - 35) =     12.57297  eV     1   --> A              
     e( 36 - 36) =     12.85039  eV     1   --> A              

 **************************************************************************

 **************************************************************************

                    xk=(   0.40428,  -0.23278,   0.00000  )

     Band symmetry, C_1 (1)     point group:

     e(  1 -  1) =    -21.15205  eV     1   --> A              
     e(  2 -  2) =    -14.31203  eV     1   --> A              
     e(  3 -  3) =     -9.05132  eV     1   --> A              
     e(  4 -  4) =     -7.64633  eV     1   --> A              
     e(  5 -  5) =     -7.27377  eV     1   --> A              
     e(  6 -  6) =     -6.26804  eV     1   --> A              
     e(  7 -  7) =     -5.17676  eV     1   --> A              
     e(  8 -  8) =     -4.96264  eV     1   --> A              
     e(  9 -  9) =     -2.68096  eV     1   --> A              
     e( 10 - 10) =      0.63679  eV     1   --> A              
     e( 11 - 11) =      2.04211  eV     1   --> A              
     e( 12 - 12) =      3.05579  eV     1   --> A              
     e( 13 - 13) =      3.28375  eV     1   --> A              
     e( 14 - 14) =      4.33465  eV     1   --> A              
     e( 15 - 15) =      5.52458  eV     1   --> A              
     e( 16 - 16) =      5.99139  eV     1   --> A              
     e( 17 - 17) =      6.11888  eV     1   --> A              
     e( 18 - 18) =      6.28369  eV     1   --> A              
     e( 19 - 19) =      6.74196  eV     1   --> A              
     e( 20 - 20) =      7.24336  eV     1   --> A              
     e( 21 - 21) =      7.34088  eV     1   --> A              
     e( 22 - 22) =      7.45537  eV     1   --> A              
     e( 23 - 23) =      8.47142  eV     1   --> A              
     e( 24 - 24) =      8.75508  eV     1   --> A              
     e( 25 - 25) =      9.15165  eV     1   --> A              
     e( 26 - 26) =     10.00320  eV     1   --> A              
     e( 27 - 27) =     10.29651  eV     1   --> A              
     e( 28 - 28) =     10.80775  eV     1   --> A              
     e( 29 - 29) =     11.13191  eV     1   --> A              
     e( 30 - 30) =     11.50370  eV     1   --> A              
     e( 31 - 31) =     11.74981  eV     1   --> A              
     e( 32 - 32) =     11.79048  eV     1   --> A              
     e( 33 - 33) =     11.91562  eV     1   --> A              
     e( 34 - 34) =     12.32852  eV     1   --> A              
     e( 35 - 35) =     12.43338  eV     1   --> A              
     e( 36 - 36) =     12.57862  eV     1   --> A              

 **************************************************************************

 **************************************************************************

                    xk=(   0.42353,  -0.24387,   0.00000  )

     Band symmetry, C_1 (1)     point group:

     e(  1 -  1) =    -21.12950  eV     1   --> A              
     e(  2 -  2) =    -14.20969  eV     1   --> A              
     e(  3 -  3) =     -9.07302  eV     1   --> A              
     e(  4 -  4) =     -7.75094  eV     1   --> A              
     e(  5 -  5) =     -7.36382  eV     1   --> A              
     e(  6 -  6) =     -6.19574  eV     1   --> A              
     e(  7 -  7) =     -5.38471  eV     1   --> A              
     e(  8 -  8) =     -4.86161  eV     1   --> A              
     e(  9 -  9) =     -2.67267  eV     1   --> A              
     e( 10 - 10) =      0.44603  eV     1   --> A              
     e( 11 - 11) =      2.05741  eV     1   --> A              
     e( 12 - 12) =      3.05411  eV     1   --> A              
     e( 13 - 13) =      3.36546  eV     1   --> A              
     e( 14 - 14) =      4.25382  eV     1   --> A              
     e( 15 - 15) =      5.73961  eV     1   --> A              
     e( 16 - 16) =      6.13262  eV     1   --> A              
     e( 17 - 17) =      6.28061  eV     1   --> A              
     e( 18 - 18) =      6.51456  eV     1   --> A              
     e( 19 - 19) =      6.80621  eV     1   --> A              
     e( 20 - 20) =      7.42053  eV     1   --> A              
     e( 21 - 21) =      7.55155  eV     1   --> A              
     e( 22 - 22) =      7.65229  eV     1   --> A              
     e( 23 - 23) =      8.56482  eV     1   --> A              
     e( 24 - 24) =      8.87704  eV     1   --> A              
     e( 25 - 25) =      9.22776  eV     1   --> A              
     e( 26 - 26) =      9.92729  eV     1   --> A              
     e( 27 - 27) =     10.13351  eV     1   --> A              
     e( 28 - 28) =     10.91921  eV     1   --> A              
     e( 29 - 29) =     11.13385  eV     1   --> A              
     e( 30 - 30) =     11.24380  eV     1   --> A              
     e( 31 - 31) =     11.47642  eV     1   --> A              
     e( 32 - 32) =     11.56312  eV     1   --> A              
     e( 33 - 33) =     11.71880  eV     1   --> A              
     e( 34 - 34) =     12.14315  eV     1   --> A              
     e( 35 - 35) =     12.25027  eV     1   --> A              
     e( 36 - 36) =     12.33148  eV     1   --> A              

 **************************************************************************

 **************************************************************************

                    xk=(   0.44278,  -0.25495,   0.00000  )

     Band symmetry, C_1 (1)     point group:

     e(  1 -  1) =    -21.10959  eV     1   --> A              
     e(  2 -  2) =    -14.11629  eV     1   --> A              
     e(  3 -  3) =     -9.08050  eV     1   --> A              
     e(  4 -  4) =     -7.85699  eV     1   --> A              
     e(  5 -  5) =     -7.43586  eV     1   --> A              
     e(  6 -  6) =     -6.12581  eV     1   --> A              
     e(  7 -  7) =     -5.59064  eV     1   --> A              
     e(  8 -  8) =     -4.75657  eV     1   --> A              
     e(  9 -  9) =     -2.66847  eV     1   --> A              
     e( 10 - 10) =      0.26798  eV     1   --> A              
     e( 11 - 11) =      2.06728  eV     1   --> A              
     e( 12 - 12) =      3.04065  eV     1   --> A              
     e( 13 - 13) =      3.46807  eV     1   --> A              
     e( 14 - 14) =      4.17909  eV     1   --> A              
     e( 15 - 15) =      5.94211  eV     1   --> A              
     e( 16 - 16) =      6.17964  eV     1   --> A              
     e( 17 - 17) =      6.46865  eV     1   --> A              
     e( 18 - 18) =      6.75642  eV     1   --> A              
     e( 19 - 19) =      6.95070  eV     1   --> A              
     e( 20 - 20) =      7.64256  eV     1   --> A              
     e( 21 - 21) =      7.78777  eV     1   --> A              
     e( 22 - 22) =      7.84460  eV     1   --> A              
     e( 23 - 23) =      8.57519  eV     1   --> A              
     e( 24 - 24) =      8.92428  eV     1   --> A              
     e( 25 - 25) =      9.45829  eV     1   --> A              
     e( 26 - 26) =      9.77118  eV     1   --> A              
     e( 27 - 27) =     10.04465  eV     1   --> A              
     e( 28 - 28) =     10.78362  eV     1   --> A              
     e( 29 - 29) =     11.00937  eV     1   --> A              
     e( 30 - 30) =     11.17071  eV     1   --> A              
     e( 31 - 31) =     11.27961  eV     1   --> A              
     e( 32 - 32) =     11.34292  eV     1   --> A              
     e( 33 - 33) =     11.62859  eV     1   --> A              
     e( 34 - 34) =     11.91081  eV     1   --> A              
     e( 35 - 35) =     12.02506  eV     1   --> A              
     e( 36 - 36) =     12.07496  eV     1   --> A              

 **************************************************************************

 **************************************************************************

                    xk=(   0.46204,  -0.26604,   0.00000  )

     Band symmetry, C_1 (1)     point group:

     e(  1 -  1) =    -21.09246  eV     1   --> A              
     e(  2 -  2) =    -14.03355  eV     1   --> A              
     e(  3 -  3) =     -9.07383  eV     1   --> A              
     e(  4 -  4) =     -7.96339  eV     1   --> A              
     e(  5 -  5) =     -7.48473  eV     1   --> A              
     e(  6 -  6) =     -6.06318  eV     1   --> A              
     e(  7 -  7) =     -5.79000  eV     1   --> A              
     e(  8 -  8) =     -4.65412  eV     1   --> A              
     e(  9 -  9) =     -2.66591  eV     1   --> A              
     e( 10 - 10) =      0.10486  eV     1   --> A              
     e( 11 - 11) =      2.07799  eV     1   --> A              
     e( 12 - 12) =      3.02648  eV     1   --> A              
     e( 13 - 13) =      3.56283  eV     1   --> A              
     e( 14 - 14) =      4.11940  eV     1   --> A              
     e( 15 - 15) =      6.05316  eV     1   --> A              
     e( 16 - 16) =      6.24673  eV     1   --> A              
     e( 17 - 17) =      6.68978  eV     1   --> A              
     e( 18 - 18) =      6.97065  eV     1   --> A              
     e( 19 - 19) =      7.20962  eV     1   --> A              
     e( 20 - 20) =      7.84642  eV     1   --> A              
     e( 21 - 21) =      7.97487  eV     1   --> A              
     e( 22 - 22) =      8.08912  eV     1   --> A              
     e( 23 - 23) =      8.53322  eV     1   --> A              
     e( 24 - 24) =      8.99292  eV     1   --> A              
     e( 25 - 25) =      9.54769  eV     1   --> A              
     e( 26 - 26) =      9.78964  eV     1   --> A              
     e( 27 - 27) =      9.99901  eV     1   --> A              
     e( 28 - 28) =     10.56272  eV     1   --> A              
     e( 29 - 29) =     10.78409  eV     1   --> A              
     e( 30 - 30) =     10.91760  eV     1   --> A              
     e( 31 - 31) =     11.01239  eV     1   --> A              
     e( 32 - 32) =     11.47907  eV     1   --> A              
     e( 33 - 33) =     11.55706  eV     1   --> A              
     e( 34 - 34) =     11.66109  eV     1   --> A              
     e( 35 - 35) =     11.80295  eV     1   --> A              
     e( 36 - 36) =     11.84031  eV     1   --> A              

 **************************************************************************

 **************************************************************************

                    xk=(   0.48129,  -0.27712,   0.00000  )

     Band symmetry, C_1 (1)     point group:

     e(  1 -  1) =    -21.07819  eV     1   --> A              
     e(  2 -  2) =    -13.96291  eV     1   --> A              
     e(  3 -  3) =     -9.05351  eV     1   --> A              
     e(  4 -  4) =     -8.06885  eV     1   --> A              
     e(  5 -  5) =     -7.50801  eV     1   --> A              
     e(  6 -  6) =     -6.01205  eV     1   --> A              
     e(  7 -  7) =     -5.97870  eV     1   --> A              
     e(  8 -  8) =     -4.55915  eV     1   --> A              
     e(  9 -  9) =     -2.66243  eV     1   --> A              
     e( 10 - 10) =     -0.04069  eV     1   --> A              
     e( 11 - 11) =      2.09017  eV     1   --> A              
     e( 12 - 12) =      3.02109  eV     1   --> A              
     e( 13 - 13) =      3.62259  eV     1   --> A              
     e( 14 - 14) =      4.08643  eV     1   --> A              
     e( 15 - 15) =      6.03332  eV     1   --> A              
     e( 16 - 16) =      6.43443  eV     1   --> A              
     e( 17 - 17) =      6.92277  eV     1   --> A              
     e( 18 - 18) =      7.17992  eV     1   --> A              
     e( 19 - 19) =      7.51742  eV     1   --> A              
     e( 20 - 20) =      7.93292  eV     1   --> A              
     e( 21 - 21) =      8.16442  eV     1   --> A              
     e( 22 - 22) =      8.35072  eV     1   --> A              
     e( 23 - 23) =      8.54388  eV     1   --> A              
     e( 24 - 24) =      9.06988  eV     1   --> A              
     e( 25 - 25) =      9.39694  eV     1   --> A              
     e( 26 - 26) =      9.95445  eV     1   --> A              
     e( 27 - 27) =     10.08327  eV     1   --> A              
     e( 28 - 28) =     10.35468  eV     1   --> A              
     e( 29 - 29) =     10.55682  eV     1   --> A              
     e( 30 - 30) =     10.67257  eV     1   --> A              
     e( 31 - 31) =     10.79085  eV     1   --> A              
     e( 32 - 32) =     11.30909  eV     1   --> A              
     e( 33 - 33) =     11.38677  eV     1   --> A              
     e( 34 - 34) =     11.52701  eV     1   --> A              
     e( 35 - 35) =     11.58230  eV     1   --> A              
     e( 36 - 36) =     11.87353  eV     1   --> A              

 **************************************************************************

 **************************************************************************

                    xk=(   0.50054,  -0.28821,   0.00000  )

     Band symmetry, C_1 (1)     point group:

     e(  1 -  1) =    -21.06677  eV     1   --> A              
     e(  2 -  2) =    -13.90540  eV     1   --> A              
     e(  3 -  3) =     -9.02070  eV     1   --> A              
     e(  4 -  4) =     -8.17160  eV     1   --> A              
     e(  5 -  5) =     -7.50550  eV     1   --> A              
     e(  6 -  6) =     -6.16024  eV     1   --> A              
     e(  7 -  7) =     -5.96711  eV     1   --> A              
     e(  8 -  8) =     -4.47651  eV     1   --> A              
     e(  9 -  9) =     -2.65602  eV     1   --> A              
     e( 10 - 10) =     -0.16566  eV     1   --> A              
     e( 11 - 11) =      2.10095  eV     1   --> A              
     e( 12 - 12) =      3.03240  eV     1   --> A              
     e( 13 - 13) =      3.63026  eV     1   --> A              
     e( 14 - 14) =      4.08571  eV     1   --> A              
     e( 15 - 15) =      6.00808  eV     1   --> A              
     e( 16 - 16) =      6.64602  eV     1   --> A              
     e( 17 - 17) =      7.14613  eV     1   --> A              
     e( 18 - 18) =      7.37060  eV     1   --> A              
     e( 19 - 19) =      7.81190  eV     1   --> A              
     e( 20 - 20) =      7.96986  eV     1   --> A              
     e( 21 - 21) =      8.34972  eV     1   --> A              
     e( 22 - 22) =      8.45313  eV     1   --> A              
     e( 23 - 23) =      8.76975  eV     1   --> A              
     e( 24 - 24) =      9.16397  eV     1   --> A              
     e( 25 - 25) =      9.26116  eV     1   --> A              
     e( 26 - 26) =      9.87134  eV     1   --> A              
     e( 27 - 27) =     10.14054  eV     1   --> A              
     e( 28 - 28) =     10.32549  eV     1   --> A              
     e( 29 - 29) =     10.37240  eV     1   --> A              
     e( 30 - 30) =     10.48675  eV     1   --> A              
     e( 31 - 31) =     10.68045  eV     1   --> A              
     e( 32 - 32) =     11.11985  eV     1   --> A              
     e( 33 - 33) =     11.14087  eV     1   --> A              
     e( 34 - 34) =     11.28078  eV     1   --> A              
     e( 35 - 35) =     11.41837  eV     1   --> A              
     e( 36 - 36) =     11.98502  eV     1   --> A              

 **************************************************************************

 **************************************************************************

                    xk=(   0.51979,  -0.29929,   0.00000  )

     Band symmetry, C_1 (1)     point group:

     e(  1 -  1) =    -21.05817  eV     1   --> A              
     e(  2 -  2) =    -13.86153  eV     1   --> A              
     e(  3 -  3) =     -8.97777  eV     1   --> A              
     e(  4 -  4) =     -8.26890  eV     1   --> A              
     e(  5 -  5) =     -7.47974  eV     1   --> A              
     e(  6 -  6) =     -6.32312  eV     1   --> A              
     e(  7 -  7) =     -5.93565  eV     1   --> A              
     e(  8 -  8) =     -4.41042  eV     1   --> A              
     e(  9 -  9) =     -2.64607  eV     1   --> A              
     e( 10 - 10) =     -0.26667  eV     1   --> A              
     e( 11 - 11) =      2.10670  eV     1   --> A              
     e( 12 - 12) =      3.06587  eV     1   --> A              
     e( 13 - 13) =      3.59321  eV     1   --> A              
     e( 14 - 14) =      4.10300  eV     1   --> A              
     e( 15 - 15) =      6.00648  eV     1   --> A              
     e( 16 - 16) =      6.85755  eV     1   --> A              
     e( 17 - 17) =      7.30681  eV     1   --> A              
     e( 18 - 18) =      7.50390  eV     1   --> A              
     e( 19 - 19) =      7.95643  eV     1   --> A              
     e( 20 - 20) =      8.22367  eV     1   --> A              
     e( 21 - 21) =      8.37052  eV     1   --> A              
     e( 22 - 22) =      8.60938  eV     1   --> A              
     e( 23 - 23) =      9.05271  eV     1   --> A              
     e( 24 - 24) =      9.16108  eV     1   --> A              
     e( 25 - 25) =      9.29810  eV     1   --> A              
     e( 26 - 26) =      9.75346  eV     1   --> A              
     e( 27 - 27) =      9.96300  eV     1   --> A              
     e( 28 - 28) =     10.09548  eV     1   --> A              
     e( 29 - 29) =     10.19454  eV     1   --> A              
     e( 30 - 30) =     10.63866  eV     1   --> A              
     e( 31 - 31) =     10.74832  eV     1   --> A              
     e( 32 - 32) =     10.89605  eV     1   --> A              
     e( 33 - 33) =     10.98192  eV     1   --> A              
     e( 34 - 34) =     11.05820  eV     1   --> A              
     e( 35 - 35) =     11.30314  eV     1   --> A              
     e( 36 - 36) =     11.83499  eV     1   --> A              

 **************************************************************************

 **************************************************************************

                    xk=(   0.53904,  -0.31038,   0.00000  )

     Band symmetry, C_1 (1)     point group:

     e(  1 -  1) =    -21.05226  eV     1   --> A              
     e(  2 -  2) =    -13.83125  eV     1   --> A              
     e(  3 -  3) =     -8.92952  eV     1   --> A              
     e(  4 -  4) =     -8.35579  eV     1   --> A              
     e(  5 -  5) =     -7.43766  eV     1   --> A              
     e(  6 -  6) =     -6.46255  eV     1   --> A              
     e(  7 -  7) =     -5.91433  eV     1   --> A              
     e(  8 -  8) =     -4.36363  eV     1   --> A              
     e(  9 -  9) =     -2.63406  eV     1   --> A              
     e( 10 - 10) =     -0.34042  eV     1   --> A              
     e( 11 - 11) =      2.10601  eV     1   --> A              
     e( 12 - 12) =      3.12170  eV     1   --> A              
     e( 13 - 13) =      3.53119  eV     1   --> A              
     e( 14 - 14) =      4.11856  eV     1   --> A              
     e( 15 - 15) =      6.02721  eV     1   --> A              
     e( 16 - 16) =      7.04635  eV     1   --> A              
     e( 17 - 17) =      7.33725  eV     1   --> A              
     e( 18 - 18) =      7.61703  eV     1   --> A              
     e( 19 - 19) =      8.13611  eV     1   --> A              
     e( 20 - 20) =      8.29517  eV     1   --> A              
     e( 21 - 21) =      8.59749  eV     1   --> A              
     e( 22 - 22) =      8.76737  eV     1   --> A              
     e( 23 - 23) =      9.00274  eV     1   --> A              
     e( 24 - 24) =      9.32838  eV     1   --> A              
     e( 25 - 25) =      9.45348  eV     1   --> A              
     e( 26 - 26) =      9.68640  eV     1   --> A              
     e( 27 - 27) =      9.80652  eV     1   --> A              
     e( 28 - 28) =      9.90616  eV     1   --> A              
     e( 29 - 29) =      9.99044  eV     1   --> A              
     e( 30 - 30) =     10.55308  eV     1   --> A              
     e( 31 - 31) =     10.66484  eV     1   --> A              
     e( 32 - 32) =     10.78334  eV     1   --> A              
     e( 33 - 33) =     10.85915  eV     1   --> A              
     e( 34 - 34) =     11.12011  eV     1   --> A              
     e( 35 - 35) =     11.33548  eV     1   --> A              
     e( 36 - 36) =     11.60696  eV     1   --> A              

 **************************************************************************

 **************************************************************************

                    xk=(   0.55829,  -0.32146,   0.00000  )

     Band symmetry, C_1 (1)     point group:

     e(  1 -  1) =    -21.04890  eV     1   --> A              
     e(  2 -  2) =    -13.81397  eV     1   --> A              
     e(  3 -  3) =     -8.88613  eV     1   --> A              
     e(  4 -  4) =     -8.42216  eV     1   --> A              
     e(  5 -  5) =     -7.39391  eV     1   --> A              
     e(  6 -  6) =     -6.56395  eV     1   --> A              
     e(  7 -  7) =     -5.90240  eV     1   --> A              
     e(  8 -  8) =     -4.33679  eV     1   --> A              
     e(  9 -  9) =     -2.62354  eV     1   --> A              
     e( 10 - 10) =     -0.38453  eV     1   --> A              
     e( 11 - 11) =      2.10121  eV     1   --> A              
     e( 12 - 12) =      3.18944  eV     1   --> A              
     e( 13 - 13) =      3.46328  eV     1   --> A              
     e( 14 - 14) =      4.12461  eV     1   --> A              
     e( 15 - 15) =      6.05527  eV     1   --> A              
     e( 16 - 16) =      7.13796  eV     1   --> A              
     e( 17 - 17) =      7.37691  eV     1   --> A              
     e( 18 - 18) =      7.67131  eV     1   --> A              
     e( 19 - 19) =      8.29144  eV     1   --> A              
     e( 20 - 20) =      8.33164  eV     1   --> A              
     e( 21 - 21) =      8.75274  eV     1   --> A              
     e( 22 - 22) =      8.92455  eV     1   --> A              
     e( 23 - 23) =      9.04741  eV     1   --> A              
     e( 24 - 24) =      9.30005  eV     1   --> A              
     e( 25 - 25) =      9.50753  eV     1   --> A              
     e( 26 - 26) =      9.61955  eV     1   --> A              
     e( 27 - 27) =      9.69338  eV     1   --> A              
     e( 28 - 28) =      9.91184  eV     1   --> A              
     e( 29 - 29) =     10.00679  eV     1   --> A              
     e( 30 - 30) =     10.40048  eV     1   --> A              
     e( 31 - 31) =     10.47587  eV     1   --> A              
     e( 32 - 32) =     10.59419  eV     1   --> A              
     e( 33 - 33) =     10.72587  eV     1   --> A              
     e( 34 - 34) =     11.31297  eV     1   --> A              
     e( 35 - 35) =     11.40653  eV     1   --> A              
     e( 36 - 36) =     11.63142  eV     1   --> A              

 **************************************************************************

[...]
     e( 11 - 11) =      2.42703  eV     1   --> A'             
     e( 12 - 12) =      3.18378  eV     1   --> A'             
     e( 13 - 13) =      3.32628  eV     1   --> A'             
     e( 14 - 14) =      4.05589  eV     1   --> A'             
     e( 15 - 15) =      4.19190  eV     1   --> A'             
     e( 16 - 16) =      4.44565  eV     1   --> A'             
     e( 17 - 17) =      5.04013  eV     1   --> A'             
     e( 18 - 18) =      5.47116  eV     1   --> A'             
     e( 19 - 19) =      5.63060  eV     1   --> A''            
     e( 20 - 20) =      5.97430  eV     1   --> A'             
     e( 21 - 21) =      6.09246  eV     1   --> A'             
     e( 22 - 22) =      7.01724  eV     1   --> A''            
     e( 23 - 23) =      7.12142  eV     1   --> A'             
     e( 24 - 24) =      7.85879  eV     1   --> A'             
     e( 25 - 25) =      8.38128  eV     1   --> A'             
     e( 26 - 26) =      8.53002  eV     1   --> A''            
     e( 27 - 27) =      9.51117  eV     1   --> A'             
     e( 28 - 28) =     10.44486  eV     1   --> A'             
     e( 29 - 29) =     10.65512  eV     1   --> A'             
     e( 30 - 30) =     11.11124  eV     1   --> A''            
     e( 31 - 31) =     12.06898  eV     1   --> A'             
     e( 32 - 32) =     12.24692  eV     1   --> A'             
     e( 33 - 33) =     13.27279  eV     1   --> A'             
     e( 34 - 34) =     13.27821  eV     1   --> A''            
     e( 35 - 35) =     13.72952  eV     1   --> A'             
     e( 36 - 36) =     14.33327  eV     1   --> A'             

 **************************************************************************

 **************************************************************************

                    xk=(   0.11551,   0.00000,   0.00000  )

     Band symmetry, C_s (m)     point group:

     e(  1 -  1) =    -21.60468  eV     1   --> A'             
     e(  2 -  2) =    -15.87005  eV     1   --> A'             
     e(  3 -  3) =     -8.40123  eV     1   --> A'             
     e(  4 -  4) =     -6.90407  eV     1   --> A'             
     e(  5 -  5) =     -6.60231  eV     1   --> A''            
     e(  6 -  6) =     -6.32390  eV     1   --> A'             
     e(  7 -  7) =     -3.62017  eV     1   --> A'             
     e(  8 -  8) =     -2.92155  eV     1   --> A'             
     e(  9 -  9) =     -2.33827  eV     1   --> A''            
     e( 10 - 10) =     -0.31456  eV     1   --> A'             
     e( 11 - 11) =      2.37351  eV     1   --> A'             
     e( 12 - 12) =      3.13671  eV     1   --> A'             
     e( 13 - 13) =      3.26353  eV     1   --> A'             
     e( 14 - 14) =      4.05594  eV     1   --> A'             
     e( 15 - 15) =      4.17323  eV     1   --> A'             
     e( 16 - 16) =      4.52602  eV     1   --> A'             
     e( 17 - 17) =      5.00372  eV     1   --> A'             
     e( 18 - 18) =      5.47130  eV     1   --> A'             
     e( 19 - 19) =      5.57385  eV     1   --> A''            
     e( 20 - 20) =      5.91096  eV     1   --> A'             
     e( 21 - 21) =      6.13530  eV     1   --> A'             
     e( 22 - 22) =      6.94401  eV     1   --> A''            
     e( 23 - 23) =      7.19610  eV     1   --> A'             
     e( 24 - 24) =      7.93288  eV     1   --> A'             
     e( 25 - 25) =      8.31693  eV     1   --> A'             
     e( 26 - 26) =      8.54993  eV     1   --> A''            
     e( 27 - 27) =      9.59649  eV     1   --> A'             
     e( 28 - 28) =     10.35193  eV     1   --> A'             
     e( 29 - 29) =     10.62496  eV     1   --> A'             
     e( 30 - 30) =     11.08370  eV     1   --> A''            
     e( 31 - 31) =     11.98970  eV     1   --> A'             
     e( 32 - 32) =     12.33977  eV     1   --> A'             
     e( 33 - 33) =     13.18231  eV     1   --> A''            
     e( 34 - 34) =     13.18267  eV     1   --> A'             
     e( 35 - 35) =     13.52789  eV     1   --> A'             
     e( 36 - 36) =     14.23303  eV     1   --> A'             

 **************************************************************************

 **************************************************************************

                    xk=(   0.09626,   0.00000,   0.00000  )

     Band symmetry, C_s (m)     point group:

     e(  1 -  1) =    -21.61897  eV     1   --> A'             
     e(  2 -  2) =    -15.90953  eV     1   --> A'             
     e(  3 -  3) =     -8.42801  eV     1   --> A'             
     e(  4 -  4) =     -6.80910  eV     1   --> A'             
     e(  5 -  5) =     -6.58589  eV     1   --> A''            
     e(  6 -  6) =     -6.35189  eV     1   --> A'             
     e(  7 -  7) =     -3.67019  eV     1   --> A'             
     e(  8 -  8) =     -2.70850  eV     1   --> A'             
     e(  9 -  9) =     -2.28339  eV     1   --> A''            
     e( 10 - 10) =     -0.40861  eV     1   --> A'             
     e( 11 - 11) =      2.32682  eV     1   --> A'             
     e( 12 - 12) =      3.09305  eV     1   --> A'             
     e( 13 - 13) =      3.20915  eV     1   --> A'             
     e( 14 - 14) =      4.01708  eV     1   --> A'             
     e( 15 - 15) =      4.15098  eV     1   --> A'             
     e( 16 - 16) =      4.59282  eV     1   --> A'             
     e( 17 - 17) =      4.97571  eV     1   --> A'             
     e( 18 - 18) =      5.45044  eV     1   --> A'             
     e( 19 - 19) =      5.51205  eV     1   --> A''            
     e( 20 - 20) =      5.85825  eV     1   --> A'             
     e( 21 - 21) =      6.25063  eV     1   --> A'             
     e( 22 - 22) =      6.88729  eV     1   --> A''            
     e( 23 - 23) =      7.24544  eV     1   --> A'             
     e( 24 - 24) =      8.05406  eV     1   --> A'             
     e( 25 - 25) =      8.26100  eV     1   --> A'             
     e( 26 - 26) =      8.58271  eV     1   --> A''            
     e( 27 - 27) =      9.62647  eV     1   --> A'             
     e( 28 - 28) =     10.27592  eV     1   --> A'             
     e( 29 - 29) =     10.61933  eV     1   --> A'             
     e( 30 - 30) =     11.04334  eV     1   --> A''            
     e( 31 - 31) =     11.86738  eV     1   --> A'             
     e( 32 - 32) =     12.48143  eV     1   --> A'             
     e( 33 - 33) =     13.04686  eV     1   --> A'             
     e( 34 - 34) =     13.11307  eV     1   --> A''            
     e( 35 - 35) =     13.32238  eV     1   --> A'             
     e( 36 - 36) =     14.18689  eV     1   --> A'             

 **************************************************************************

 **************************************************************************

                    xk=(   0.07701,   0.00000,   0.00000  )

     Band symmetry, C_s (m)     point group:

     e(  1 -  1) =    -21.63084  eV     1   --> A'             
     e(  2 -  2) =    -15.94201  eV     1   --> A'             
     e(  3 -  3) =     -8.45157  eV     1   --> A'             
     e(  4 -  4) =     -6.72380  eV     1   --> A'             
     e(  5 -  5) =     -6.57213  eV     1   --> A''            
     e(  6 -  6) =     -6.37524  eV     1   --> A'             
     e(  7 -  7) =     -3.71845  eV     1   --> A'             
     e(  8 -  8) =     -2.51788  eV     1   --> A'             
     e(  9 -  9) =     -2.23656  eV     1   --> A''            
     e( 10 - 10) =     -0.48860  eV     1   --> A'             
     e( 11 - 11) =      2.28774  eV     1   --> A'             
     e( 12 - 12) =      3.05540  eV     1   --> A'             
     e( 13 - 13) =      3.16396  eV     1   --> A'             
     e( 14 - 14) =      3.97677  eV     1   --> A'             
     e( 15 - 15) =      4.12132  eV     1   --> A'             
     e( 16 - 16) =      4.56588  eV     1   --> A'             
     e( 17 - 17) =      5.03034  eV     1   --> A'             
     e( 18 - 18) =      5.42388  eV     1   --> A'             
     e( 19 - 19) =      5.45191  eV     1   --> A''            
     e( 20 - 20) =      5.81486  eV     1   --> A'             
     e( 21 - 21) =      6.39891  eV     1   --> A'             
     e( 22 - 22) =      6.84417  eV     1   --> A''            
     e( 23 - 23) =      7.26823  eV     1   --> A'             
     e( 24 - 24) =      8.15410  eV     1   --> A'             
     e( 25 - 25) =      8.26640  eV     1   --> A'             
     e( 26 - 26) =      8.62301  eV     1   --> A''            
     e( 27 - 27) =      9.58927  eV     1   --> A'             
     e( 28 - 28) =     10.21817  eV     1   --> A'             
     e( 29 - 29) =     10.65227  eV     1   --> A'             
     e( 30 - 30) =     10.99396  eV     1   --> A''            
     e( 31 - 31) =     11.75485  eV     1   --> A'             
     e( 32 - 32) =     12.60296  eV     1   --> A'             
     e( 33 - 33) =     12.89936  eV     1   --> A'             
     e( 34 - 34) =     13.06844  eV     1   --> A''            
     e( 35 - 35) =     13.14764  eV     1   --> A'             
     e( 36 - 36) =     14.15706  eV     1   --> A'             

 **************************************************************************

 **************************************************************************

                    xk=(   0.05775,   0.00000,   0.00000  )

     Band symmetry, C_s (m)     point group:

     e(  1 -  1) =    -21.64017  eV     1   --> A'             
     e(  2 -  2) =    -15.96739  eV     1   --> A'             
     e(  3 -  3) =     -8.47080  eV     1   --> A'             
     e(  4 -  4) =     -6.65213  eV     1   --> A'             
     e(  5 -  5) =     -6.56121  eV     1   --> A''            
     e(  6 -  6) =     -6.39380  eV     1   --> A'             
     e(  7 -  7) =     -3.76034  eV     1   --> A'             
     e(  8 -  8) =     -2.35855  eV     1   --> A'             
     e(  9 -  9) =     -2.19887  eV     1   --> A''            
     e( 10 - 10) =     -0.55308  eV     1   --> A'             
     e( 11 - 11) =      2.25681  eV     1   --> A'             
     e( 12 - 12) =      3.02506  eV     1   --> A'             
     e( 13 - 13) =      3.12840  eV     1   --> A'             
     e( 14 - 14) =      3.94271  eV     1   --> A'             
     e( 15 - 15) =      4.08939  eV     1   --> A'             
     e( 16 - 16) =      4.48872  eV     1   --> A'             
     e( 17 - 17) =      5.13056  eV     1   --> A'             
     e( 18 - 18) =      5.39923  eV     1   --> A''            
     e( 19 - 19) =      5.39979  eV     1   --> A'             
     e( 20 - 20) =      5.78029  eV     1   --> A'             
     e( 21 - 21) =      6.54903  eV     1   --> A'             
     e( 22 - 22) =      6.81236  eV     1   --> A''            
     e( 23 - 23) =      7.27495  eV     1   --> A'             
     e( 24 - 24) =      8.12405  eV     1   --> A'             
     e( 25 - 25) =      8.41858  eV     1   --> A'             
     e( 26 - 26) =      8.66463  eV     1   --> A''            
     e( 27 - 27) =      9.50499  eV     1   --> A'             
     e( 28 - 28) =     10.16828  eV     1   --> A'             
     e( 29 - 29) =     10.71819  eV     1   --> A'             
     e( 30 - 30) =     10.94234  eV     1   --> A''            
     e( 31 - 31) =     11.66050  eV     1   --> A'             
     e( 32 - 32) =     12.62511  eV     1   --> A'             
     e( 33 - 33) =     12.81920  eV     1   --> A'             
     e( 34 - 34) =     13.02851  eV     1   --> A'             
     e( 35 - 35) =     13.04351  eV     1   --> A''            
     e( 36 - 36) =     14.12785  eV     1   --> A'             

 **************************************************************************

 **************************************************************************

                    xk=(   0.03850,   0.00000,   0.00000  )

     Band symmetry, C_s (m)     point group:

     e(  1 -  1) =    -21.64690  eV     1   --> A'             
     e(  2 -  2) =    -15.98558  eV     1   --> A'             
     e(  3 -  3) =     -8.48499  eV     1   --> A'             
     e(  4 -  4) =     -6.59764  eV     1   --> A'             
     e(  5 -  5) =     -6.55330  eV     1   --> A''            
     e(  6 -  6) =     -6.40746  eV     1   --> A'             
     e(  7 -  7) =     -3.79274  eV     1   --> A'             
     e(  8 -  8) =     -2.23799  eV     1   --> A'             
     e(  9 -  9) =     -2.17123  eV     1   --> A''            
     e( 10 - 10) =     -0.60062  eV     1   --> A'             
     e( 11 - 11) =      2.23443  eV     1   --> A'             
     e( 12 - 12) =      3.00282  eV     1   --> A'             
     e( 13 - 13) =      3.10277  eV     1   --> A'             
     e( 14 - 14) =      3.91708  eV     1   --> A'             
     e( 15 - 15) =      4.05945  eV     1   --> A'             
     e( 16 - 16) =      4.41796  eV     1   --> A'             
     e( 17 - 17) =      5.22470  eV     1   --> A'             
     e( 18 - 18) =      5.35849  eV     1   --> A''            
     e( 19 - 19) =      5.37980  eV     1   --> A'             
     e( 20 - 20) =      5.75460  eV     1   --> A'             
     e( 21 - 21) =      6.67851  eV     1   --> A'             
     e( 22 - 22) =      6.79040  eV     1   --> A''            
     e( 23 - 23) =      7.27466  eV     1   --> A'             
     e( 24 - 24) =      8.08050  eV     1   --> A'             
     e( 25 - 25) =      8.57970  eV     1   --> A'             
     e( 26 - 26) =      8.70093  eV     1   --> A''            
     e( 27 - 27) =      9.40602  eV     1   --> A'             
     e( 28 - 28) =     10.12282  eV     1   --> A'             
     e( 29 - 29) =     10.79355  eV     1   --> A'             
     e( 30 - 30) =     10.89684  eV     1   --> A''            
     e( 31 - 31) =     11.58813  eV     1   --> A'             
     e( 32 - 32) =     12.53129  eV     1   --> A'             
     e( 33 - 33) =     12.80500  eV     1   --> A'             
     e( 34 - 34) =     12.99919  eV     1   --> A'             
     e( 35 - 35) =     13.03197  eV     1   --> A''            
     e( 36 - 36) =     14.09642  eV     1   --> A'             

 **************************************************************************

 **************************************************************************

                    xk=(   0.01925,   0.00000,   0.00000  )

     Band symmetry, C_s (m)     point group:

     e(  1 -  1) =    -21.65096  eV     1   --> A'             
     e(  2 -  2) =    -15.99651  eV     1   --> A'             
     e(  3 -  3) =     -8.49367  eV     1   --> A'             
     e(  4 -  4) =     -6.56333  eV     1   --> A'             
     e(  5 -  5) =     -6.54849  eV     1   --> A''            
     e(  6 -  6) =     -6.41599  eV     1   --> A'             
     e(  7 -  7) =     -3.81324  eV     1   --> A'             
     e(  8 -  8) =     -2.16261  eV     1   --> A'             
     e(  9 -  9) =     -2.15434  eV     1   --> A''            
     e( 10 - 10) =     -0.62986  eV     1   --> A'             
     e( 11 - 11) =      2.22089  eV     1   --> A'             
     e( 12 - 12) =      2.98922  eV     1   --> A'             
     e( 13 - 13) =      3.08728  eV     1   --> A'             
     e( 14 - 14) =      3.90102  eV     1   --> A'             
     e( 15 - 15) =      4.03727  eV     1   --> A'             
     e( 16 - 16) =      4.37316  eV     1   --> A'             
     e( 17 - 17) =      5.29339  eV     1   --> A'             
     e( 18 - 18) =      5.33284  eV     1   --> A''            
     e( 19 - 19) =      5.36203  eV     1   --> A'             
     e( 20 - 20) =      5.73841  eV     1   --> A'             
     e( 21 - 21) =      6.76757  eV     1   --> A'             
     e( 22 - 22) =      6.77747  eV     1   --> A''            
     e( 23 - 23) =      7.27273  eV     1   --> A'             
     e( 24 - 24) =      8.04772  eV     1   --> A'             
     e( 25 - 25) =      8.70470  eV     1   --> A'             
     e( 26 - 26) =      8.72576  eV     1   --> A''            
     e( 27 - 27) =      9.32194  eV     1   --> A'             
     e( 28 - 28) =     10.08876  eV     1   --> A'             
     e( 29 - 29) =     10.85227  eV     1   --> A'             
     e( 30 - 30) =     10.86557  eV     1   --> A''            
     e( 31 - 31) =     11.54168  eV     1   --> A'             
     e( 32 - 32) =     12.45035  eV     1   --> A'             
     e( 33 - 33) =     12.77117  eV     1   --> A'             
     e( 34 - 34) =     13.02704  eV     1   --> A'             
     e( 35 - 35) =     13.02787  eV     1   --> A''            
     e( 36 - 36) =     14.06839  eV     1   --> A'             

 **************************************************************************

 **************************************************************************

                    xk=(   0.00000,   0.00000,   0.00000  )

     Band symmetry, C_s (m)     point group:

     e(  1 -  1) =    -21.65231  eV     1   --> A'             
     e(  2 -  2) =    -16.00016  eV     1   --> A'             
     e(  3 -  3) =     -8.49659  eV     1   --> A'             
     e(  4 -  4) =     -6.55156  eV     1   --> A'             
     e(  5 -  5) =     -6.54687  eV     1   --> A''            
     e(  6 -  6) =     -6.41894  eV     1   --> A'             
     e(  7 -  7) =     -3.82026  eV     1   --> A'             
     e(  8 -  8) =     -2.14867  eV     1   --> A''            
     e(  9 -  9) =     -2.13692  eV     1   --> A'             
     e( 10 - 10) =     -0.63975  eV     1   --> A'             
     e( 11 - 11) =      2.21635  eV     1   --> A'             
     e( 12 - 12) =      2.98464  eV     1   --> A'             
     e( 13 - 13) =      3.08210  eV     1   --> A'             
     e( 14 - 14) =      3.89550  eV     1   --> A'             
     e( 15 - 15) =      4.02898  eV     1   --> A'             
     e( 16 - 16) =      4.35822  eV     1   --> A'             
     e( 17 - 17) =      5.32409  eV     1   --> A''            
     e( 18 - 18) =      5.32734  eV     1   --> A'             
     e( 19 - 19) =      5.34611  eV     1   --> A'             
     e( 20 - 20) =      5.73280  eV     1   --> A'             
     e( 21 - 21) =      6.77320  eV     1   --> A''            
     e( 22 - 22) =      6.79960  eV     1   --> A'             
     e( 23 - 23) =      7.27182  eV     1   --> A'             
     e( 24 - 24) =      8.03538  eV     1   --> A'             
     e( 25 - 25) =      8.73459  eV     1   --> A''            
     e( 26 - 26) =      8.75482  eV     1   --> A'             
     e( 27 - 27) =      9.28638  eV     1   --> A'             
     e( 28 - 28) =     10.07587  eV     1   --> A'             
     e( 29 - 29) =     10.85442  eV     1   --> A''            
     e( 30 - 30) =     10.87446  eV     1   --> A'             
     e( 31 - 31) =     11.52549  eV     1   --> A'             
     e( 32 - 32) =     12.42081  eV     1   --> A'             
     e( 33 - 33) =     12.75594  eV     1   --> A'             
     e( 34 - 34) =     13.02700  eV     1   --> A''            
     e( 35 - 35) =     13.04203  eV     1   --> A'             
     e( 36 - 36) =     14.05657  eV     1   --> A'             

 **************************************************************************

     BANDS        :      6.18s CPU      6.83s WALL


   This run was terminated on:   8:23:28  15Feb2023            

=------------------------------------------------------------------------------=
   JOB DONE.
=------------------------------------------------------------------------------=
