
     Program PWSCF v.7.1 starts on 12Jun2023 at 15: 6:38 

     This program is part of the open-source Quantum ESPRESSO suite
     for quantum simulation of materials; please cite
         "P. Giannozzi et al., J. Phys.:Condens. Matter 21 395502 (2009);
         "P. Giannozzi et al., J. Phys.:Condens. Matter 29 465901 (2017);
         "P. Giannozzi et al., J. Chem. Phys. 152 154105 (2020);
          URL http://www.quantum-espresso.org", 
     in publications or presentations arising from this work. More details at
     http://www.quantum-espresso.org/quote

     Parallel version (MPI), running on    18 processors

     MPI processes distributed on     1 nodes
     102040 MiB available memory on the printing compute node when the environment starts
 
     Waiting for input...
     Reading input from standard input

     Current dimensions of program PWSCF are:
     Max number of different atomic species (ntypx) = 10
     Max number of k-points (npk) =  40000
     Max angular momentum in pseudopotentials (lmaxx) =  4
     Message from routine volume:
     axis vectors are left-handed

     Atomic positions and unit cell read from directory:
     ./work/Al2SO.save/
     Atomic positions from file used, from input discarded
 
     Message from routine volume:
     axis vectors are left-handed
     file Al.pbe-n-kjpaw_psl.1.0.0.UPF: wavefunction(s)  3S 3P renormalized
     file O.pbe-n-kjpaw_psl.1.0.0.UPF: wavefunction(s)  2S 2P renormalized
     file S.pbe-n-kjpaw_psl.1.0.0.UPF: wavefunction(s)  3S 3P renormalized

     IMPORTANT: XC functional enforced from input :
     Exchange-correlation= VDW-DF2-B86R
                           (   1   4  26   0   2   0   0)
     Any further DFT definition will be discarded
     Please, verify this is what you really want

 
     R & G space division:  proc/nbgrp/npool/nimage =      18
     Subspace diagonalization in iterative solution of the eigenvalue problem:
     a serial algorithm will be used

 
     Parallelization info
     --------------------
     sticks:   dense  smooth     PW     G-vecs:    dense   smooth      PW
     Min          35      35     11                 2985     2985     537
     Max          36      36     12                 2994     2994     554
     Sum         637     637    199                53817    53817    9751
 
     Using Slab Decomposition
 


     bravais-lattice index     =            0
     lattice parameter (alat)  =       6.1564  a.u.
     unit-cell volume          =     857.2901 (a.u.)^3
     number of atoms/cell      =            8
     number of atomic types    =            3
     number of electrons       =        36.00
     number of Kohn-Sham states=           25
     kinetic-energy cutoff     =      60.0000  Ry
     charge density cutoff     =     240.0000  Ry
     Exchange-correlation= VDW-DF2-B86R
                           (   1   4  26   0   2   0   0)

     celldm(1)=   6.156363  celldm(2)=   0.000000  celldm(3)=   0.000000
     celldm(4)=   0.000000  celldm(5)=   0.000000  celldm(6)=   0.000000

     crystal axes: (cart. coord. in units of alat)
               a(1) = (   0.866118   0.499839   0.000000 )  
               a(2) = (   0.866118  -0.499839   0.000000 )  
               a(3) = (   0.000000   0.000000   4.243436 )  

     reciprocal axes: (cart. coord. in units 2 pi/alat)
               b(1) = (  0.577288  1.000322  0.000000 )  
               b(2) = (  0.577288 -1.000322  0.000000 )  
               b(3) = (  0.000000  0.000000  0.235658 )  


     PseudoPot. # 1 for Al read from file:
     /home/mainadmin/research/danu/pseudo/Al.pbe-n-kjpaw_psl.1.0.0.UPF
     MD5 check sum: 502b6b27b9c6270cab5dd1084b96fa6d
     Pseudo is Projector augmented-wave + core cor, Zval =  3.0
     Generated using &quot;atomic&quot; code by A. Dal Corso  v.6.3
     Shape of augmentation charge: PSQ
     Using radial grid of 1135 points,  6 beta functions with: 
                l(1) =   0
                l(2) =   0
                l(3) =   1
                l(4) =   1
                l(5) =   2
                l(6) =   2
     Q(r) pseudized with 0 coefficients 


     PseudoPot. # 2 for O  read from file:
     /home/mainadmin/research/danu/pseudo/O.pbe-n-kjpaw_psl.1.0.0.UPF
     MD5 check sum: e99d9cef9b487d1ca56f5b95ecd0fd7a
     Pseudo is Projector augmented-wave + core cor, Zval =  6.0
     Generated using &quot;atomic&quot; code by A. Dal Corso  v.6.3
     Shape of augmentation charge: PSQ
     Using radial grid of 1095 points,  4 beta functions with: 
                l(1) =   0
                l(2) =   0
                l(3) =   1
                l(4) =   1
     Q(r) pseudized with 0 coefficients 


     PseudoPot. # 3 for S  read from file:
     /home/mainadmin/research/danu/pseudo/S.pbe-n-kjpaw_psl.1.0.0.UPF
     MD5 check sum: fb45dfebcf3e72a4e1bd4a866ec2e262
     Pseudo is Projector augmented-wave + core cor, Zval =  6.0
     Generated using &quot;atomic&quot; code by A. Dal Corso  v.6.3
     Shape of augmentation charge: PSQ
     Using radial grid of 1151 points,  6 beta functions with: 
                l(1) =   0
                l(2) =   0
                l(3) =   1
                l(4) =   1
                l(5) =   2
                l(6) =   2
     Q(r) pseudized with 0 coefficients 


     atomic species   valence    mass     pseudopotential
        Al             3.00    26.98100     Al( 1.00)
        O              6.00    15.99900     O ( 1.00)
        S              6.00    32.06500     S ( 1.00)

     No symmetry found


                                    s                        frac. trans.

      isym =  1     identity                                     

 cryst.   s( 1) = (     1          0          0      )
                  (     0          1          0      )
                  (     0          0          1      )

 cart.    s( 1) = (  1.0000000  0.0000000  0.0000000 )
                  (  0.0000000  1.0000000  0.0000000 )
                  (  0.0000000  0.0000000  1.0000000 )


   Cartesian axes

     site n.     atom                  positions (alat units)
         1           O   tau(   1) = (   0.5774121   0.0000000   0.0000000  )
         2           Al  tau(   2) = (   0.0000000   0.0000000   0.1305637  )
         3           Al  tau(   3) = (   0.0000000   0.0000000   0.9339928  )
         4           S   tau(   4) = (   0.5774121   0.0000000   1.3154094  )
         5           O   tau(   5) = (   1.1548243   0.0000000   2.1222735  )
         6           Al  tau(   6) = (   0.5774121   0.0000000   2.2490455  )
         7           Al  tau(   7) = (   0.5774121   0.0000000   3.0529687  )
         8           S   tau(   8) = (   1.1548243   0.0000000   3.4365719  )

   Crystallographic axes

     site n.     atom                  positions (cryst. coord.)
         1           O   tau(   1) = (  0.3333333  0.3333333  0.0000000  )
         2           Al  tau(   2) = (  0.0000000  0.0000000  0.0307684  )
         3           Al  tau(   3) = (  0.0000000  0.0000000  0.2201029  )
         4           S   tau(   4) = (  0.3333333  0.3333333  0.3099869  )
         5           O   tau(   5) = (  0.6666667  0.6666667  0.5001309  )
         6           Al  tau(   6) = (  0.3333333  0.3333333  0.5300058  )
         7           Al  tau(   7) = (  0.3333333  0.3333333  0.7194568  )
         8           S   tau(   8) = (  0.6666667  0.6666667  0.8098559  )

     number of k points=  4058 (tetrahedron method)
                       cart. coord. in units 2pi/alat
        k(    1) = (   0.0000000   0.0000000   0.0000000), wk =   0.0002465
        k(    2) = (   0.0000000   0.0000000   0.0785527), wk =   0.0004931
        k(    3) = (   0.0111017  -0.0192370   0.0000000), wk =   0.0004931
        k(    4) = (   0.0111017  -0.0192370   0.0785527), wk =   0.0004931
        k(    5) = (   0.0111017  -0.0192370  -0.0785527), wk =   0.0004931
        k(    6) = (   0.0222034  -0.0384739   0.0000000), wk =   0.0004931
        k(    7) = (   0.0222034  -0.0384739   0.0785527), wk =   0.0004931
        k(    8) = (   0.0222034  -0.0384739  -0.0785527), wk =   0.0004931
        k(    9) = (   0.0333051  -0.0577109   0.0000000), wk =   0.0004931
        k(   10) = (   0.0333051  -0.0577109   0.0785527), wk =   0.0004931
        k(   11) = (   0.0333051  -0.0577109  -0.0785527), wk =   0.0004931
        k(   12) = (   0.0444068  -0.0769478   0.0000000), wk =   0.0004931
        k(   13) = (   0.0444068  -0.0769478   0.0785527), wk =   0.0004931
        k(   14) = (   0.0444068  -0.0769478  -0.0785527), wk =   0.0004931
        k(   15) = (   0.0555085  -0.0961848   0.0000000), wk =   0.0004931
        k(   16) = (   0.0555085  -0.0961848   0.0785527), wk =   0.0004931
        k(   17) = (   0.0555085  -0.0961848  -0.0785527), wk =   0.0004931
        k(   18) = (   0.0666102  -0.1154217   0.0000000), wk =   0.0004931
        k(   19) = (   0.0666102  -0.1154217   0.0785527), wk =   0.0004931
        k(   20) = (   0.0666102  -0.1154217  -0.0785527), wk =   0.0004931
        k(   21) = (   0.0777119  -0.1346587   0.0000000), wk =   0.0004931
        k(   22) = (   0.0777119  -0.1346587   0.0785527), wk =   0.0004931
        k(   23) = (   0.0777119  -0.1346587  -0.0785527), wk =   0.0004931
        k(   24) = (   0.0888136  -0.1538956   0.0000000), wk =   0.0004931
        k(   25) = (   0.0888136  -0.1538956   0.0785527), wk =   0.0004931
        k(   26) = (   0.0888136  -0.1538956  -0.0785527), wk =   0.0004931
        k(   27) = (   0.0999153  -0.1731326   0.0000000), wk =   0.0004931
        k(   28) = (   0.0999153  -0.1731326   0.0785527), wk =   0.0004931
        k(   29) = (   0.0999153  -0.1731326  -0.0785527), wk =   0.0004931
        k(   30) = (   0.1110170  -0.1923696   0.0000000), wk =   0.0004931
        k(   31) = (   0.1110170  -0.1923696   0.0785527), wk =   0.0004931
        k(   32) = (   0.1110170  -0.1923696  -0.0785527), wk =   0.0004931
        k(   33) = (   0.1221187  -0.2116065   0.0000000), wk =   0.0004931
        k(   34) = (   0.1221187  -0.2116065   0.0785527), wk =   0.0004931
        k(   35) = (   0.1221187  -0.2116065  -0.0785527), wk =   0.0004931
        k(   36) = (   0.1332204  -0.2308435   0.0000000), wk =   0.0004931
        k(   37) = (   0.1332204  -0.2308435   0.0785527), wk =   0.0004931
        k(   38) = (   0.1332204  -0.2308435  -0.0785527), wk =   0.0004931
        k(   39) = (   0.1443221  -0.2500804   0.0000000), wk =   0.0004931
        k(   40) = (   0.1443221  -0.2500804   0.0785527), wk =   0.0004931
        k(   41) = (   0.1443221  -0.2500804  -0.0785527), wk =   0.0004931
        k(   42) = (   0.1554238  -0.2693174   0.0000000), wk =   0.0004931
        k(   43) = (   0.1554238  -0.2693174   0.0785527), wk =   0.0004931
        k(   44) = (   0.1554238  -0.2693174  -0.0785527), wk =   0.0004931
        k(   45) = (   0.1665255  -0.2885543   0.0000000), wk =   0.0004931
        k(   46) = (   0.1665255  -0.2885543   0.0785527), wk =   0.0004931
        k(   47) = (   0.1665255  -0.2885543  -0.0785527), wk =   0.0004931
        k(   48) = (   0.1776272  -0.3077913   0.0000000), wk =   0.0004931
        k(   49) = (   0.1776272  -0.3077913   0.0785527), wk =   0.0004931
        k(   50) = (   0.1776272  -0.3077913  -0.0785527), wk =   0.0004931
        k(   51) = (   0.1887289  -0.3270282   0.0000000), wk =   0.0004931
        k(   52) = (   0.1887289  -0.3270282   0.0785527), wk =   0.0004931
        k(   53) = (   0.1887289  -0.3270282  -0.0785527), wk =   0.0004931
        k(   54) = (   0.1998306  -0.3462652   0.0000000), wk =   0.0004931
        k(   55) = (   0.1998306  -0.3462652   0.0785527), wk =   0.0004931
        k(   56) = (   0.1998306  -0.3462652  -0.0785527), wk =   0.0004931
        k(   57) = (   0.2109323  -0.3655021   0.0000000), wk =   0.0004931
        k(   58) = (   0.2109323  -0.3655021   0.0785527), wk =   0.0004931
        k(   59) = (   0.2109323  -0.3655021  -0.0785527), wk =   0.0004931
        k(   60) = (   0.2220340  -0.3847391   0.0000000), wk =   0.0004931
        k(   61) = (   0.2220340  -0.3847391   0.0785527), wk =   0.0004931
        k(   62) = (   0.2220340  -0.3847391  -0.0785527), wk =   0.0004931
        k(   63) = (   0.2331357  -0.4039761   0.0000000), wk =   0.0004931
        k(   64) = (   0.2331357  -0.4039761   0.0785527), wk =   0.0004931
        k(   65) = (   0.2331357  -0.4039761  -0.0785527), wk =   0.0004931
        k(   66) = (   0.2442374  -0.4232130   0.0000000), wk =   0.0004931
        k(   67) = (   0.2442374  -0.4232130   0.0785527), wk =   0.0004931
        k(   68) = (   0.2442374  -0.4232130  -0.0785527), wk =   0.0004931
        k(   69) = (   0.2553391  -0.4424500   0.0000000), wk =   0.0004931
        k(   70) = (   0.2553391  -0.4424500   0.0785527), wk =   0.0004931
        k(   71) = (   0.2553391  -0.4424500  -0.0785527), wk =   0.0004931
        k(   72) = (   0.2664408  -0.4616869   0.0000000), wk =   0.0004931
        k(   73) = (   0.2664408  -0.4616869   0.0785527), wk =   0.0004931
        k(   74) = (   0.2664408  -0.4616869  -0.0785527), wk =   0.0004931
        k(   75) = (   0.2775425  -0.4809239   0.0000000), wk =   0.0004931
        k(   76) = (   0.2775425  -0.4809239   0.0785527), wk =   0.0004931
        k(   77) = (   0.2775425  -0.4809239  -0.0785527), wk =   0.0004931
        k(   78) = (  -0.2886442   0.5001608   0.0000000), wk =   0.0002465
        k(   79) = (  -0.2886442   0.5001608   0.0785527), wk =   0.0004931
        k(   80) = (   0.0111017   0.0192370   0.0000000), wk =   0.0004931
        k(   81) = (   0.0111017   0.0192370   0.0785527), wk =   0.0004931
        k(   82) = (   0.0111017   0.0192370  -0.0785527), wk =   0.0004931
        k(   83) = (   0.0222034   0.0000000   0.0000000), wk =   0.0004931
        k(   84) = (   0.0222034   0.0000000   0.0785527), wk =   0.0004931
        k(   85) = (   0.0222034   0.0000000  -0.0785527), wk =   0.0004931
        k(   86) = (   0.0333051  -0.0192370   0.0000000), wk =   0.0004931
        k(   87) = (   0.0333051  -0.0192370   0.0785527), wk =   0.0004931
        k(   88) = (   0.0333051  -0.0192370  -0.0785527), wk =   0.0004931
        k(   89) = (   0.0444068  -0.0384739   0.0000000), wk =   0.0004931
        k(   90) = (   0.0444068  -0.0384739   0.0785527), wk =   0.0004931
        k(   91) = (   0.0444068  -0.0384739  -0.0785527), wk =   0.0004931
        k(   92) = (   0.0555085  -0.0577109   0.0000000), wk =   0.0004931
        k(   93) = (   0.0555085  -0.0577109   0.0785527), wk =   0.0004931
        k(   94) = (   0.0555085  -0.0577109  -0.0785527), wk =   0.0004931
        k(   95) = (   0.0666102  -0.0769478   0.0000000), wk =   0.0004931
        k(   96) = (   0.0666102  -0.0769478   0.0785527), wk =   0.0004931
        k(   97) = (   0.0666102  -0.0769478  -0.0785527), wk =   0.0004931
        k(   98) = (   0.0777119  -0.0961848   0.0000000), wk =   0.0004931
        k(   99) = (   0.0777119  -0.0961848   0.0785527), wk =   0.0004931
        k(  100) = (   0.0777119  -0.0961848  -0.0785527), wk =   0.0004931
        k(  101) = (   0.0888136  -0.1154217   0.0000000), wk =   0.0004931
        k(  102) = (   0.0888136  -0.1154217   0.0785527), wk =   0.0004931
        k(  103) = (   0.0888136  -0.1154217  -0.0785527), wk =   0.0004931
        k(  104) = (   0.0999153  -0.1346587   0.0000000), wk =   0.0004931
        k(  105) = (   0.0999153  -0.1346587   0.0785527), wk =   0.0004931
        k(  106) = (   0.0999153  -0.1346587  -0.0785527), wk =   0.0004931
        k(  107) = (   0.1110170  -0.1538956   0.0000000), wk =   0.0004931
        k(  108) = (   0.1110170  -0.1538956   0.0785527), wk =   0.0004931
        k(  109) = (   0.1110170  -0.1538956  -0.0785527), wk =   0.0004931
        k(  110) = (   0.1221187  -0.1731326   0.0000000), wk =   0.0004931
        k(  111) = (   0.1221187  -0.1731326   0.0785527), wk =   0.0004931
        k(  112) = (   0.1221187  -0.1731326  -0.0785527), wk =   0.0004931
        k(  113) = (   0.1332204  -0.1923696   0.0000000), wk =   0.0004931
        k(  114) = (   0.1332204  -0.1923696   0.0785527), wk =   0.0004931
        k(  115) = (   0.1332204  -0.1923696  -0.0785527), wk =   0.0004931
        k(  116) = (   0.1443221  -0.2116065   0.0000000), wk =   0.0004931
        k(  117) = (   0.1443221  -0.2116065   0.0785527), wk =   0.0004931
        k(  118) = (   0.1443221  -0.2116065  -0.0785527), wk =   0.0004931
        k(  119) = (   0.1554238  -0.2308435   0.0000000), wk =   0.0004931
        k(  120) = (   0.1554238  -0.2308435   0.0785527), wk =   0.0004931
        k(  121) = (   0.1554238  -0.2308435  -0.0785527), wk =   0.0004931
        k(  122) = (   0.1665255  -0.2500804   0.0000000), wk =   0.0004931
        k(  123) = (   0.1665255  -0.2500804   0.0785527), wk =   0.0004931
        k(  124) = (   0.1665255  -0.2500804  -0.0785527), wk =   0.0004931
        k(  125) = (   0.1776272  -0.2693174   0.0000000), wk =   0.0004931
        k(  126) = (   0.1776272  -0.2693174   0.0785527), wk =   0.0004931
        k(  127) = (   0.1776272  -0.2693174  -0.0785527), wk =   0.0004931
        k(  128) = (   0.1887289  -0.2885543   0.0000000), wk =   0.0004931
        k(  129) = (   0.1887289  -0.2885543   0.0785527), wk =   0.0004931
        k(  130) = (   0.1887289  -0.2885543  -0.0785527), wk =   0.0004931
        k(  131) = (   0.1998306  -0.3077913   0.0000000), wk =   0.0004931
        k(  132) = (   0.1998306  -0.3077913   0.0785527), wk =   0.0004931
        k(  133) = (   0.1998306  -0.3077913  -0.0785527), wk =   0.0004931
        k(  134) = (   0.2109323  -0.3270282   0.0000000), wk =   0.0004931
        k(  135) = (   0.2109323  -0.3270282   0.0785527), wk =   0.0004931
        k(  136) = (   0.2109323  -0.3270282  -0.0785527), wk =   0.0004931
        k(  137) = (   0.2220340  -0.3462652   0.0000000), wk =   0.0004931
        k(  138) = (   0.2220340  -0.3462652   0.0785527), wk =   0.0004931
        k(  139) = (   0.2220340  -0.3462652  -0.0785527), wk =   0.0004931
        k(  140) = (   0.2331357  -0.3655021   0.0000000), wk =   0.0004931
        k(  141) = (   0.2331357  -0.3655021   0.0785527), wk =   0.0004931
        k(  142) = (   0.2331357  -0.3655021  -0.0785527), wk =   0.0004931
        k(  143) = (   0.2442374  -0.3847391   0.0000000), wk =   0.0004931
        k(  144) = (   0.2442374  -0.3847391   0.0785527), wk =   0.0004931
        k(  145) = (   0.2442374  -0.3847391  -0.0785527), wk =   0.0004931
        k(  146) = (   0.2553391  -0.4039761   0.0000000), wk =   0.0004931
        k(  147) = (   0.2553391  -0.4039761   0.0785527), wk =   0.0004931
        k(  148) = (   0.2553391  -0.4039761  -0.0785527), wk =   0.0004931
        k(  149) = (   0.2664408  -0.4232130   0.0000000), wk =   0.0004931
        k(  150) = (   0.2664408  -0.4232130   0.0785527), wk =   0.0004931
        k(  151) = (   0.2664408  -0.4232130  -0.0785527), wk =   0.0004931
        k(  152) = (   0.2775425  -0.4424500   0.0000000), wk =   0.0004931
        k(  153) = (   0.2775425  -0.4424500   0.0785527), wk =   0.0004931
        k(  154) = (   0.2775425  -0.4424500  -0.0785527), wk =   0.0004931
        k(  155) = (   0.2886442  -0.4616869   0.0000000), wk =   0.0004931
        k(  156) = (   0.2886442  -0.4616869   0.0785527), wk =   0.0004931
        k(  157) = (   0.2886442  -0.4616869  -0.0785527), wk =   0.0004931
        k(  158) = (  -0.2775425   0.5193978   0.0000000), wk =   0.0004931
        k(  159) = (  -0.2775425   0.5193978   0.0785527), wk =   0.0004931
        k(  160) = (  -0.2775425   0.5193978  -0.0785527), wk =   0.0004931
        k(  161) = (  -0.2664408   0.5001608   0.0000000), wk =   0.0004931
        k(  162) = (  -0.2664408   0.5001608   0.0785527), wk =   0.0004931
        k(  163) = (  -0.2664408   0.5001608  -0.0785527), wk =   0.0004931
        k(  164) = (  -0.2553391   0.4809239   0.0000000), wk =   0.0004931
        k(  165) = (  -0.2553391   0.4809239   0.0785527), wk =   0.0004931
        k(  166) = (  -0.2553391   0.4809239  -0.0785527), wk =   0.0004931
        k(  167) = (  -0.2442374   0.4616869   0.0000000), wk =   0.0004931
        k(  168) = (  -0.2442374   0.4616869   0.0785527), wk =   0.0004931
        k(  169) = (  -0.2442374   0.4616869  -0.0785527), wk =   0.0004931
        k(  170) = (  -0.2331357   0.4424500   0.0000000), wk =   0.0004931
        k(  171) = (  -0.2331357   0.4424500   0.0785527), wk =   0.0004931
        k(  172) = (  -0.2331357   0.4424500  -0.0785527), wk =   0.0004931
        k(  173) = (  -0.2220340   0.4232130   0.0000000), wk =   0.0004931
        k(  174) = (  -0.2220340   0.4232130   0.0785527), wk =   0.0004931
        k(  175) = (  -0.2220340   0.4232130  -0.0785527), wk =   0.0004931
        k(  176) = (  -0.2109323   0.4039761   0.0000000), wk =   0.0004931
        k(  177) = (  -0.2109323   0.4039761   0.0785527), wk =   0.0004931
        k(  178) = (  -0.2109323   0.4039761  -0.0785527), wk =   0.0004931
        k(  179) = (  -0.1998306   0.3847391   0.0000000), wk =   0.0004931
        k(  180) = (  -0.1998306   0.3847391   0.0785527), wk =   0.0004931
        k(  181) = (  -0.1998306   0.3847391  -0.0785527), wk =   0.0004931
        k(  182) = (  -0.1887289   0.3655021   0.0000000), wk =   0.0004931
        k(  183) = (  -0.1887289   0.3655021   0.0785527), wk =   0.0004931
        k(  184) = (  -0.1887289   0.3655021  -0.0785527), wk =   0.0004931
        k(  185) = (  -0.1776272   0.3462652   0.0000000), wk =   0.0004931
        k(  186) = (  -0.1776272   0.3462652   0.0785527), wk =   0.0004931
        k(  187) = (  -0.1776272   0.3462652  -0.0785527), wk =   0.0004931
        k(  188) = (  -0.1665255   0.3270282   0.0000000), wk =   0.0004931
        k(  189) = (  -0.1665255   0.3270282   0.0785527), wk =   0.0004931
        k(  190) = (  -0.1665255   0.3270282  -0.0785527), wk =   0.0004931
        k(  191) = (  -0.1554238   0.3077913   0.0000000), wk =   0.0004931
        k(  192) = (  -0.1554238   0.3077913   0.0785527), wk =   0.0004931
        k(  193) = (  -0.1554238   0.3077913  -0.0785527), wk =   0.0004931
        k(  194) = (  -0.1443221   0.2885543   0.0000000), wk =   0.0004931
        k(  195) = (  -0.1443221   0.2885543   0.0785527), wk =   0.0004931
        k(  196) = (  -0.1443221   0.2885543  -0.0785527), wk =   0.0004931
        k(  197) = (  -0.1332204   0.2693174   0.0000000), wk =   0.0004931
        k(  198) = (  -0.1332204   0.2693174   0.0785527), wk =   0.0004931
        k(  199) = (  -0.1332204   0.2693174  -0.0785527), wk =   0.0004931
        k(  200) = (  -0.1221187   0.2500804   0.0000000), wk =   0.0004931
        k(  201) = (  -0.1221187   0.2500804   0.0785527), wk =   0.0004931
        k(  202) = (  -0.1221187   0.2500804  -0.0785527), wk =   0.0004931
        k(  203) = (  -0.1110170   0.2308435   0.0000000), wk =   0.0004931
        k(  204) = (  -0.1110170   0.2308435   0.0785527), wk =   0.0004931
        k(  205) = (  -0.1110170   0.2308435  -0.0785527), wk =   0.0004931
        k(  206) = (  -0.0999153   0.2116065   0.0000000), wk =   0.0004931
        k(  207) = (  -0.0999153   0.2116065   0.0785527), wk =   0.0004931
        k(  208) = (  -0.0999153   0.2116065  -0.0785527), wk =   0.0004931
        k(  209) = (  -0.0888136   0.1923696   0.0000000), wk =   0.0004931
        k(  210) = (  -0.0888136   0.1923696   0.0785527), wk =   0.0004931
        k(  211) = (  -0.0888136   0.1923696  -0.0785527), wk =   0.0004931
        k(  212) = (  -0.0777119   0.1731326   0.0000000), wk =   0.0004931
        k(  213) = (  -0.0777119   0.1731326   0.0785527), wk =   0.0004931
        k(  214) = (  -0.0777119   0.1731326  -0.0785527), wk =   0.0004931
        k(  215) = (  -0.0666102   0.1538956   0.0000000), wk =   0.0004931
        k(  216) = (  -0.0666102   0.1538956   0.0785527), wk =   0.0004931
        k(  217) = (  -0.0666102   0.1538956  -0.0785527), wk =   0.0004931
        k(  218) = (  -0.0555085   0.1346587   0.0000000), wk =   0.0004931
        k(  219) = (  -0.0555085   0.1346587   0.0785527), wk =   0.0004931
        k(  220) = (  -0.0555085   0.1346587  -0.0785527), wk =   0.0004931
        k(  221) = (  -0.0444068   0.1154217   0.0000000), wk =   0.0004931
        k(  222) = (  -0.0444068   0.1154217   0.0785527), wk =   0.0004931
        k(  223) = (  -0.0444068   0.1154217  -0.0785527), wk =   0.0004931
        k(  224) = (  -0.0333051   0.0961848   0.0000000), wk =   0.0004931
        k(  225) = (  -0.0333051   0.0961848   0.0785527), wk =   0.0004931
        k(  226) = (  -0.0333051   0.0961848  -0.0785527), wk =   0.0004931
        k(  227) = (  -0.0222034   0.0769478   0.0000000), wk =   0.0004931
        k(  228) = (  -0.0222034   0.0769478   0.0785527), wk =   0.0004931
        k(  229) = (  -0.0222034   0.0769478  -0.0785527), wk =   0.0004931
        k(  230) = (  -0.0111017   0.0577109   0.0000000), wk =   0.0004931
        k(  231) = (  -0.0111017   0.0577109   0.0785527), wk =   0.0004931
        k(  232) = (  -0.0111017   0.0577109  -0.0785527), wk =   0.0004931
        k(  233) = (  -0.0000000   0.0384739   0.0000000), wk =   0.0004931
        k(  234) = (  -0.0000000   0.0384739   0.0785527), wk =   0.0004931
        k(  235) = (  -0.0000000   0.0384739  -0.0785527), wk =   0.0004931
        k(  236) = (   0.0222034   0.0384739   0.0000000), wk =   0.0004931
        k(  237) = (   0.0222034   0.0384739   0.0785527), wk =   0.0004931
        k(  238) = (   0.0222034   0.0384739  -0.0785527), wk =   0.0004931
        k(  239) = (   0.0333051   0.0192370   0.0000000), wk =   0.0004931
        k(  240) = (   0.0333051   0.0192370   0.0785527), wk =   0.0004931
        k(  241) = (   0.0333051   0.0192370  -0.0785527), wk =   0.0004931
        k(  242) = (   0.0444068   0.0000000   0.0000000), wk =   0.0004931
        k(  243) = (   0.0444068   0.0000000   0.0785527), wk =   0.0004931
        k(  244) = (   0.0444068   0.0000000  -0.0785527), wk =   0.0004931
        k(  245) = (   0.0555085  -0.0192370   0.0000000), wk =   0.0004931
        k(  246) = (   0.0555085  -0.0192370   0.0785527), wk =   0.0004931
        k(  247) = (   0.0555085  -0.0192370  -0.0785527), wk =   0.0004931
        k(  248) = (   0.0666102  -0.0384739   0.0000000), wk =   0.0004931
        k(  249) = (   0.0666102  -0.0384739   0.0785527), wk =   0.0004931
        k(  250) = (   0.0666102  -0.0384739  -0.0785527), wk =   0.0004931
        k(  251) = (   0.0777119  -0.0577109   0.0000000), wk =   0.0004931
        k(  252) = (   0.0777119  -0.0577109   0.0785527), wk =   0.0004931
        k(  253) = (   0.0777119  -0.0577109  -0.0785527), wk =   0.0004931
        k(  254) = (   0.0888136  -0.0769478   0.0000000), wk =   0.0004931
        k(  255) = (   0.0888136  -0.0769478   0.0785527), wk =   0.0004931
        k(  256) = (   0.0888136  -0.0769478  -0.0785527), wk =   0.0004931
        k(  257) = (   0.0999153  -0.0961848   0.0000000), wk =   0.0004931
        k(  258) = (   0.0999153  -0.0961848   0.0785527), wk =   0.0004931
        k(  259) = (   0.0999153  -0.0961848  -0.0785527), wk =   0.0004931
        k(  260) = (   0.1110170  -0.1154217   0.0000000), wk =   0.0004931
        k(  261) = (   0.1110170  -0.1154217   0.0785527), wk =   0.0004931
        k(  262) = (   0.1110170  -0.1154217  -0.0785527), wk =   0.0004931
        k(  263) = (   0.1221187  -0.1346587   0.0000000), wk =   0.0004931
        k(  264) = (   0.1221187  -0.1346587   0.0785527), wk =   0.0004931
        k(  265) = (   0.1221187  -0.1346587  -0.0785527), wk =   0.0004931
        k(  266) = (   0.1332204  -0.1538956   0.0000000), wk =   0.0004931
        k(  267) = (   0.1332204  -0.1538956   0.0785527), wk =   0.0004931
        k(  268) = (   0.1332204  -0.1538956  -0.0785527), wk =   0.0004931
        k(  269) = (   0.1443221  -0.1731326   0.0000000), wk =   0.0004931
        k(  270) = (   0.1443221  -0.1731326   0.0785527), wk =   0.0004931
        k(  271) = (   0.1443221  -0.1731326  -0.0785527), wk =   0.0004931
        k(  272) = (   0.1554238  -0.1923696   0.0000000), wk =   0.0004931
        k(  273) = (   0.1554238  -0.1923696   0.0785527), wk =   0.0004931
        k(  274) = (   0.1554238  -0.1923696  -0.0785527), wk =   0.0004931
        k(  275) = (   0.1665255  -0.2116065   0.0000000), wk =   0.0004931
        k(  276) = (   0.1665255  -0.2116065   0.0785527), wk =   0.0004931
        k(  277) = (   0.1665255  -0.2116065  -0.0785527), wk =   0.0004931
        k(  278) = (   0.1776272  -0.2308435   0.0000000), wk =   0.0004931
        k(  279) = (   0.1776272  -0.2308435   0.0785527), wk =   0.0004931
        k(  280) = (   0.1776272  -0.2308435  -0.0785527), wk =   0.0004931
        k(  281) = (   0.1887289  -0.2500804   0.0000000), wk =   0.0004931
        k(  282) = (   0.1887289  -0.2500804   0.0785527), wk =   0.0004931
        k(  283) = (   0.1887289  -0.2500804  -0.0785527), wk =   0.0004931
        k(  284) = (   0.1998306  -0.2693174   0.0000000), wk =   0.0004931
        k(  285) = (   0.1998306  -0.2693174   0.0785527), wk =   0.0004931
        k(  286) = (   0.1998306  -0.2693174  -0.0785527), wk =   0.0004931
        k(  287) = (   0.2109323  -0.2885543   0.0000000), wk =   0.0004931
        k(  288) = (   0.2109323  -0.2885543   0.0785527), wk =   0.0004931
        k(  289) = (   0.2109323  -0.2885543  -0.0785527), wk =   0.0004931
        k(  290) = (   0.2220340  -0.3077913   0.0000000), wk =   0.0004931
        k(  291) = (   0.2220340  -0.3077913   0.0785527), wk =   0.0004931
        k(  292) = (   0.2220340  -0.3077913  -0.0785527), wk =   0.0004931
        k(  293) = (   0.2331357  -0.3270282   0.0000000), wk =   0.0004931
        k(  294) = (   0.2331357  -0.3270282   0.0785527), wk =   0.0004931
        k(  295) = (   0.2331357  -0.3270282  -0.0785527), wk =   0.0004931
        k(  296) = (   0.2442374  -0.3462652   0.0000000), wk =   0.0004931
        k(  297) = (   0.2442374  -0.3462652   0.0785527), wk =   0.0004931
        k(  298) = (   0.2442374  -0.3462652  -0.0785527), wk =   0.0004931
        k(  299) = (   0.2553391  -0.3655021   0.0000000), wk =   0.0004931
        k(  300) = (   0.2553391  -0.3655021   0.0785527), wk =   0.0004931
        k(  301) = (   0.2553391  -0.3655021  -0.0785527), wk =   0.0004931
        k(  302) = (   0.2664408  -0.3847391   0.0000000), wk =   0.0004931
        k(  303) = (   0.2664408  -0.3847391   0.0785527), wk =   0.0004931
        k(  304) = (   0.2664408  -0.3847391  -0.0785527), wk =   0.0004931
        k(  305) = (   0.2775425  -0.4039761   0.0000000), wk =   0.0004931
        k(  306) = (   0.2775425  -0.4039761   0.0785527), wk =   0.0004931
        k(  307) = (   0.2775425  -0.4039761  -0.0785527), wk =   0.0004931
        k(  308) = (   0.2886442  -0.4232130   0.0000000), wk =   0.0004931
        k(  309) = (   0.2886442  -0.4232130   0.0785527), wk =   0.0004931
        k(  310) = (   0.2886442  -0.4232130  -0.0785527), wk =   0.0004931
        k(  311) = (   0.2997459  -0.4424500   0.0000000), wk =   0.0004931
        k(  312) = (   0.2997459  -0.4424500   0.0785527), wk =   0.0004931
        k(  313) = (   0.2997459  -0.4424500  -0.0785527), wk =   0.0004931
        k(  314) = (  -0.2664408   0.5386347   0.0000000), wk =   0.0004931
        k(  315) = (  -0.2664408   0.5386347   0.0785527), wk =   0.0004931
        k(  316) = (  -0.2664408   0.5386347  -0.0785527), wk =   0.0004931
        k(  317) = (  -0.2553391   0.5193978   0.0000000), wk =   0.0004931
        k(  318) = (  -0.2553391   0.5193978   0.0785527), wk =   0.0004931
        k(  319) = (  -0.2553391   0.5193978  -0.0785527), wk =   0.0004931
        k(  320) = (  -0.2442374   0.5001608   0.0000000), wk =   0.0004931
        k(  321) = (  -0.2442374   0.5001608   0.0785527), wk =   0.0004931
        k(  322) = (  -0.2442374   0.5001608  -0.0785527), wk =   0.0004931
        k(  323) = (  -0.2331357   0.4809239   0.0000000), wk =   0.0004931
        k(  324) = (  -0.2331357   0.4809239   0.0785527), wk =   0.0004931
        k(  325) = (  -0.2331357   0.4809239  -0.0785527), wk =   0.0004931
        k(  326) = (  -0.2220340   0.4616869   0.0000000), wk =   0.0004931
        k(  327) = (  -0.2220340   0.4616869   0.0785527), wk =   0.0004931
        k(  328) = (  -0.2220340   0.4616869  -0.0785527), wk =   0.0004931
        k(  329) = (  -0.2109323   0.4424500   0.0000000), wk =   0.0004931
        k(  330) = (  -0.2109323   0.4424500   0.0785527), wk =   0.0004931
        k(  331) = (  -0.2109323   0.4424500  -0.0785527), wk =   0.0004931
        k(  332) = (  -0.1998306   0.4232130   0.0000000), wk =   0.0004931
        k(  333) = (  -0.1998306   0.4232130   0.0785527), wk =   0.0004931
        k(  334) = (  -0.1998306   0.4232130  -0.0785527), wk =   0.0004931
        k(  335) = (  -0.1887289   0.4039761   0.0000000), wk =   0.0004931
        k(  336) = (  -0.1887289   0.4039761   0.0785527), wk =   0.0004931
        k(  337) = (  -0.1887289   0.4039761  -0.0785527), wk =   0.0004931
        k(  338) = (  -0.1776272   0.3847391   0.0000000), wk =   0.0004931
        k(  339) = (  -0.1776272   0.3847391   0.0785527), wk =   0.0004931
        k(  340) = (  -0.1776272   0.3847391  -0.0785527), wk =   0.0004931
        k(  341) = (  -0.1665255   0.3655021   0.0000000), wk =   0.0004931
        k(  342) = (  -0.1665255   0.3655021   0.0785527), wk =   0.0004931
        k(  343) = (  -0.1665255   0.3655021  -0.0785527), wk =   0.0004931
        k(  344) = (  -0.1554238   0.3462652   0.0000000), wk =   0.0004931
        k(  345) = (  -0.1554238   0.3462652   0.0785527), wk =   0.0004931
        k(  346) = (  -0.1554238   0.3462652  -0.0785527), wk =   0.0004931
        k(  347) = (  -0.1443221   0.3270282   0.0000000), wk =   0.0004931
        k(  348) = (  -0.1443221   0.3270282   0.0785527), wk =   0.0004931
        k(  349) = (  -0.1443221   0.3270282  -0.0785527), wk =   0.0004931
        k(  350) = (  -0.1332204   0.3077913   0.0000000), wk =   0.0004931
        k(  351) = (  -0.1332204   0.3077913   0.0785527), wk =   0.0004931
        k(  352) = (  -0.1332204   0.3077913  -0.0785527), wk =   0.0004931
        k(  353) = (  -0.1221187   0.2885543   0.0000000), wk =   0.0004931
        k(  354) = (  -0.1221187   0.2885543   0.0785527), wk =   0.0004931
        k(  355) = (  -0.1221187   0.2885543  -0.0785527), wk =   0.0004931
        k(  356) = (  -0.1110170   0.2693174   0.0000000), wk =   0.0004931
        k(  357) = (  -0.1110170   0.2693174   0.0785527), wk =   0.0004931
        k(  358) = (  -0.1110170   0.2693174  -0.0785527), wk =   0.0004931
        k(  359) = (  -0.0999153   0.2500804   0.0000000), wk =   0.0004931
        k(  360) = (  -0.0999153   0.2500804   0.0785527), wk =   0.0004931
        k(  361) = (  -0.0999153   0.2500804  -0.0785527), wk =   0.0004931
        k(  362) = (  -0.0888136   0.2308435   0.0000000), wk =   0.0004931
        k(  363) = (  -0.0888136   0.2308435   0.0785527), wk =   0.0004931
        k(  364) = (  -0.0888136   0.2308435  -0.0785527), wk =   0.0004931
        k(  365) = (  -0.0777119   0.2116065   0.0000000), wk =   0.0004931
        k(  366) = (  -0.0777119   0.2116065   0.0785527), wk =   0.0004931
        k(  367) = (  -0.0777119   0.2116065  -0.0785527), wk =   0.0004931
        k(  368) = (  -0.0666102   0.1923696   0.0000000), wk =   0.0004931
        k(  369) = (  -0.0666102   0.1923696   0.0785527), wk =   0.0004931
        k(  370) = (  -0.0666102   0.1923696  -0.0785527), wk =   0.0004931
        k(  371) = (  -0.0555085   0.1731326   0.0000000), wk =   0.0004931
        k(  372) = (  -0.0555085   0.1731326   0.0785527), wk =   0.0004931
        k(  373) = (  -0.0555085   0.1731326  -0.0785527), wk =   0.0004931
        k(  374) = (  -0.0444068   0.1538956   0.0000000), wk =   0.0004931
        k(  375) = (  -0.0444068   0.1538956   0.0785527), wk =   0.0004931
        k(  376) = (  -0.0444068   0.1538956  -0.0785527), wk =   0.0004931
        k(  377) = (  -0.0333051   0.1346587   0.0000000), wk =   0.0004931
        k(  378) = (  -0.0333051   0.1346587   0.0785527), wk =   0.0004931
        k(  379) = (  -0.0333051   0.1346587  -0.0785527), wk =   0.0004931
        k(  380) = (  -0.0222034   0.1154217   0.0000000), wk =   0.0004931
        k(  381) = (  -0.0222034   0.1154217   0.0785527), wk =   0.0004931
        k(  382) = (  -0.0222034   0.1154217  -0.0785527), wk =   0.0004931
        k(  383) = (  -0.0111017   0.0961848   0.0000000), wk =   0.0004931
        k(  384) = (  -0.0111017   0.0961848   0.0785527), wk =   0.0004931
        k(  385) = (  -0.0111017   0.0961848  -0.0785527), wk =   0.0004931
        k(  386) = (   0.0000000   0.0769478   0.0000000), wk =   0.0004931
        k(  387) = (   0.0000000   0.0769478   0.0785527), wk =   0.0004931
        k(  388) = (   0.0000000   0.0769478  -0.0785527), wk =   0.0004931
        k(  389) = (   0.0111017   0.0577109   0.0000000), wk =   0.0004931
        k(  390) = (   0.0111017   0.0577109   0.0785527), wk =   0.0004931
        k(  391) = (   0.0111017   0.0577109  -0.0785527), wk =   0.0004931
        k(  392) = (   0.0333051   0.0577109   0.0000000), wk =   0.0004931
        k(  393) = (   0.0333051   0.0577109   0.0785527), wk =   0.0004931
        k(  394) = (   0.0333051   0.0577109  -0.0785527), wk =   0.0004931
        k(  395) = (   0.0444068   0.0384739   0.0000000), wk =   0.0004931
        k(  396) = (   0.0444068   0.0384739   0.0785527), wk =   0.0004931
        k(  397) = (   0.0444068   0.0384739  -0.0785527), wk =   0.0004931
        k(  398) = (   0.0555085   0.0192370   0.0000000), wk =   0.0004931
        k(  399) = (   0.0555085   0.0192370   0.0785527), wk =   0.0004931
        k(  400) = (   0.0555085   0.0192370  -0.0785527), wk =   0.0004931
        k(  401) = (   0.0666102   0.0000000   0.0000000), wk =   0.0004931
        k(  402) = (   0.0666102   0.0000000   0.0785527), wk =   0.0004931
        k(  403) = (   0.0666102   0.0000000  -0.0785527), wk =   0.0004931
        k(  404) = (   0.0777119  -0.0192370   0.0000000), wk =   0.0004931
        k(  405) = (   0.0777119  -0.0192370   0.0785527), wk =   0.0004931
        k(  406) = (   0.0777119  -0.0192370  -0.0785527), wk =   0.0004931
        k(  407) = (   0.0888136  -0.0384739   0.0000000), wk =   0.0004931
        k(  408) = (   0.0888136  -0.0384739   0.0785527), wk =   0.0004931
        k(  409) = (   0.0888136  -0.0384739  -0.0785527), wk =   0.0004931
        k(  410) = (   0.0999153  -0.0577109   0.0000000), wk =   0.0004931
        k(  411) = (   0.0999153  -0.0577109   0.0785527), wk =   0.0004931
        k(  412) = (   0.0999153  -0.0577109  -0.0785527), wk =   0.0004931
        k(  413) = (   0.1110170  -0.0769478   0.0000000), wk =   0.0004931
        k(  414) = (   0.1110170  -0.0769478   0.0785527), wk =   0.0004931
        k(  415) = (   0.1110170  -0.0769478  -0.0785527), wk =   0.0004931
        k(  416) = (   0.1221187  -0.0961848   0.0000000), wk =   0.0004931
        k(  417) = (   0.1221187  -0.0961848   0.0785527), wk =   0.0004931
        k(  418) = (   0.1221187  -0.0961848  -0.0785527), wk =   0.0004931
        k(  419) = (   0.1332204  -0.1154217   0.0000000), wk =   0.0004931
        k(  420) = (   0.1332204  -0.1154217   0.0785527), wk =   0.0004931
        k(  421) = (   0.1332204  -0.1154217  -0.0785527), wk =   0.0004931
        k(  422) = (   0.1443221  -0.1346587   0.0000000), wk =   0.0004931
        k(  423) = (   0.1443221  -0.1346587   0.0785527), wk =   0.0004931
        k(  424) = (   0.1443221  -0.1346587  -0.0785527), wk =   0.0004931
        k(  425) = (   0.1554238  -0.1538956   0.0000000), wk =   0.0004931
        k(  426) = (   0.1554238  -0.1538956   0.0785527), wk =   0.0004931
        k(  427) = (   0.1554238  -0.1538956  -0.0785527), wk =   0.0004931
        k(  428) = (   0.1665255  -0.1731326   0.0000000), wk =   0.0004931
        k(  429) = (   0.1665255  -0.1731326   0.0785527), wk =   0.0004931
        k(  430) = (   0.1665255  -0.1731326  -0.0785527), wk =   0.0004931
        k(  431) = (   0.1776272  -0.1923696   0.0000000), wk =   0.0004931
        k(  432) = (   0.1776272  -0.1923696   0.0785527), wk =   0.0004931
        k(  433) = (   0.1776272  -0.1923696  -0.0785527), wk =   0.0004931
        k(  434) = (   0.1887289  -0.2116065   0.0000000), wk =   0.0004931
        k(  435) = (   0.1887289  -0.2116065   0.0785527), wk =   0.0004931
        k(  436) = (   0.1887289  -0.2116065  -0.0785527), wk =   0.0004931
        k(  437) = (   0.1998306  -0.2308435   0.0000000), wk =   0.0004931
        k(  438) = (   0.1998306  -0.2308435   0.0785527), wk =   0.0004931
        k(  439) = (   0.1998306  -0.2308435  -0.0785527), wk =   0.0004931
        k(  440) = (   0.2109323  -0.2500804   0.0000000), wk =   0.0004931
        k(  441) = (   0.2109323  -0.2500804   0.0785527), wk =   0.0004931
        k(  442) = (   0.2109323  -0.2500804  -0.0785527), wk =   0.0004931
        k(  443) = (   0.2220340  -0.2693174   0.0000000), wk =   0.0004931
        k(  444) = (   0.2220340  -0.2693174   0.0785527), wk =   0.0004931
        k(  445) = (   0.2220340  -0.2693174  -0.0785527), wk =   0.0004931
        k(  446) = (   0.2331357  -0.2885543   0.0000000), wk =   0.0004931
        k(  447) = (   0.2331357  -0.2885543   0.0785527), wk =   0.0004931
        k(  448) = (   0.2331357  -0.2885543  -0.0785527), wk =   0.0004931
        k(  449) = (   0.2442374  -0.3077913   0.0000000), wk =   0.0004931
        k(  450) = (   0.2442374  -0.3077913   0.0785527), wk =   0.0004931
        k(  451) = (   0.2442374  -0.3077913  -0.0785527), wk =   0.0004931
        k(  452) = (   0.2553391  -0.3270282   0.0000000), wk =   0.0004931
        k(  453) = (   0.2553391  -0.3270282   0.0785527), wk =   0.0004931
        k(  454) = (   0.2553391  -0.3270282  -0.0785527), wk =   0.0004931
        k(  455) = (   0.2664408  -0.3462652   0.0000000), wk =   0.0004931
        k(  456) = (   0.2664408  -0.3462652   0.0785527), wk =   0.0004931
        k(  457) = (   0.2664408  -0.3462652  -0.0785527), wk =   0.0004931
        k(  458) = (   0.2775425  -0.3655021   0.0000000), wk =   0.0004931
        k(  459) = (   0.2775425  -0.3655021   0.0785527), wk =   0.0004931
        k(  460) = (   0.2775425  -0.3655021  -0.0785527), wk =   0.0004931
        k(  461) = (   0.2886442  -0.3847391   0.0000000), wk =   0.0004931
        k(  462) = (   0.2886442  -0.3847391   0.0785527), wk =   0.0004931
        k(  463) = (   0.2886442  -0.3847391  -0.0785527), wk =   0.0004931
        k(  464) = (   0.2997459  -0.4039761   0.0000000), wk =   0.0004931
        k(  465) = (   0.2997459  -0.4039761   0.0785527), wk =   0.0004931
        k(  466) = (   0.2997459  -0.4039761  -0.0785527), wk =   0.0004931
        k(  467) = (   0.3108476  -0.4232130   0.0000000), wk =   0.0004931
        k(  468) = (   0.3108476  -0.4232130   0.0785527), wk =   0.0004931
        k(  469) = (   0.3108476  -0.4232130  -0.0785527), wk =   0.0004931
        k(  470) = (  -0.2553391   0.5578717   0.0000000), wk =   0.0004931
        k(  471) = (  -0.2553391   0.5578717   0.0785527), wk =   0.0004931
        k(  472) = (  -0.2553391   0.5578717  -0.0785527), wk =   0.0004931
        k(  473) = (  -0.2442374   0.5386347   0.0000000), wk =   0.0004931
        k(  474) = (  -0.2442374   0.5386347   0.0785527), wk =   0.0004931
        k(  475) = (  -0.2442374   0.5386347  -0.0785527), wk =   0.0004931
        k(  476) = (  -0.2331357   0.5193978   0.0000000), wk =   0.0004931
        k(  477) = (  -0.2331357   0.5193978   0.0785527), wk =   0.0004931
        k(  478) = (  -0.2331357   0.5193978  -0.0785527), wk =   0.0004931
        k(  479) = (  -0.2220340   0.5001608   0.0000000), wk =   0.0004931
        k(  480) = (  -0.2220340   0.5001608   0.0785527), wk =   0.0004931
        k(  481) = (  -0.2220340   0.5001608  -0.0785527), wk =   0.0004931
        k(  482) = (  -0.2109323   0.4809239   0.0000000), wk =   0.0004931
        k(  483) = (  -0.2109323   0.4809239   0.0785527), wk =   0.0004931
        k(  484) = (  -0.2109323   0.4809239  -0.0785527), wk =   0.0004931
        k(  485) = (  -0.1998306   0.4616869   0.0000000), wk =   0.0004931
        k(  486) = (  -0.1998306   0.4616869   0.0785527), wk =   0.0004931
        k(  487) = (  -0.1998306   0.4616869  -0.0785527), wk =   0.0004931
        k(  488) = (  -0.1887289   0.4424500   0.0000000), wk =   0.0004931
        k(  489) = (  -0.1887289   0.4424500   0.0785527), wk =   0.0004931
        k(  490) = (  -0.1887289   0.4424500  -0.0785527), wk =   0.0004931
        k(  491) = (  -0.1776272   0.4232130   0.0000000), wk =   0.0004931
        k(  492) = (  -0.1776272   0.4232130   0.0785527), wk =   0.0004931
        k(  493) = (  -0.1776272   0.4232130  -0.0785527), wk =   0.0004931
        k(  494) = (  -0.1665255   0.4039761   0.0000000), wk =   0.0004931
        k(  495) = (  -0.1665255   0.4039761   0.0785527), wk =   0.0004931
        k(  496) = (  -0.1665255   0.4039761  -0.0785527), wk =   0.0004931
        k(  497) = (  -0.1554238   0.3847391   0.0000000), wk =   0.0004931
        k(  498) = (  -0.1554238   0.3847391   0.0785527), wk =   0.0004931
        k(  499) = (  -0.1554238   0.3847391  -0.0785527), wk =   0.0004931
        k(  500) = (  -0.1443221   0.3655021   0.0000000), wk =   0.0004931
        k(  501) = (  -0.1443221   0.3655021   0.0785527), wk =   0.0004931
        k(  502) = (  -0.1443221   0.3655021  -0.0785527), wk =   0.0004931
        k(  503) = (  -0.1332204   0.3462652   0.0000000), wk =   0.0004931
        k(  504) = (  -0.1332204   0.3462652   0.0785527), wk =   0.0004931
        k(  505) = (  -0.1332204   0.3462652  -0.0785527), wk =   0.0004931
        k(  506) = (  -0.1221187   0.3270282   0.0000000), wk =   0.0004931
        k(  507) = (  -0.1221187   0.3270282   0.0785527), wk =   0.0004931
        k(  508) = (  -0.1221187   0.3270282  -0.0785527), wk =   0.0004931
        k(  509) = (  -0.1110170   0.3077913   0.0000000), wk =   0.0004931
        k(  510) = (  -0.1110170   0.3077913   0.0785527), wk =   0.0004931
        k(  511) = (  -0.1110170   0.3077913  -0.0785527), wk =   0.0004931
        k(  512) = (  -0.0999153   0.2885543   0.0000000), wk =   0.0004931
        k(  513) = (  -0.0999153   0.2885543   0.0785527), wk =   0.0004931
        k(  514) = (  -0.0999153   0.2885543  -0.0785527), wk =   0.0004931
        k(  515) = (  -0.0888136   0.2693174   0.0000000), wk =   0.0004931
        k(  516) = (  -0.0888136   0.2693174   0.0785527), wk =   0.0004931
        k(  517) = (  -0.0888136   0.2693174  -0.0785527), wk =   0.0004931
        k(  518) = (  -0.0777119   0.2500804   0.0000000), wk =   0.0004931
        k(  519) = (  -0.0777119   0.2500804   0.0785527), wk =   0.0004931
        k(  520) = (  -0.0777119   0.2500804  -0.0785527), wk =   0.0004931
        k(  521) = (  -0.0666102   0.2308435   0.0000000), wk =   0.0004931
        k(  522) = (  -0.0666102   0.2308435   0.0785527), wk =   0.0004931
        k(  523) = (  -0.0666102   0.2308435  -0.0785527), wk =   0.0004931
        k(  524) = (  -0.0555085   0.2116065   0.0000000), wk =   0.0004931
        k(  525) = (  -0.0555085   0.2116065   0.0785527), wk =   0.0004931
        k(  526) = (  -0.0555085   0.2116065  -0.0785527), wk =   0.0004931
        k(  527) = (  -0.0444068   0.1923696   0.0000000), wk =   0.0004931
        k(  528) = (  -0.0444068   0.1923696   0.0785527), wk =   0.0004931
        k(  529) = (  -0.0444068   0.1923696  -0.0785527), wk =   0.0004931
        k(  530) = (  -0.0333051   0.1731326   0.0000000), wk =   0.0004931
        k(  531) = (  -0.0333051   0.1731326   0.0785527), wk =   0.0004931
        k(  532) = (  -0.0333051   0.1731326  -0.0785527), wk =   0.0004931
        k(  533) = (  -0.0222034   0.1538956   0.0000000), wk =   0.0004931
        k(  534) = (  -0.0222034   0.1538956   0.0785527), wk =   0.0004931
        k(  535) = (  -0.0222034   0.1538956  -0.0785527), wk =   0.0004931
        k(  536) = (  -0.0111017   0.1346587   0.0000000), wk =   0.0004931
        k(  537) = (  -0.0111017   0.1346587   0.0785527), wk =   0.0004931
        k(  538) = (  -0.0111017   0.1346587  -0.0785527), wk =   0.0004931
        k(  539) = (  -0.0000000   0.1154217   0.0000000), wk =   0.0004931
        k(  540) = (  -0.0000000   0.1154217   0.0785527), wk =   0.0004931
        k(  541) = (  -0.0000000   0.1154217  -0.0785527), wk =   0.0004931
        k(  542) = (   0.0111017   0.0961848   0.0000000), wk =   0.0004931
        k(  543) = (   0.0111017   0.0961848   0.0785527), wk =   0.0004931
        k(  544) = (   0.0111017   0.0961848  -0.0785527), wk =   0.0004931
        k(  545) = (   0.0222034   0.0769478   0.0000000), wk =   0.0004931
        k(  546) = (   0.0222034   0.0769478   0.0785527), wk =   0.0004931
        k(  547) = (   0.0222034   0.0769478  -0.0785527), wk =   0.0004931
        k(  548) = (   0.0444068   0.0769478   0.0000000), wk =   0.0004931
        k(  549) = (   0.0444068   0.0769478   0.0785527), wk =   0.0004931
        k(  550) = (   0.0444068   0.0769478  -0.0785527), wk =   0.0004931
        k(  551) = (   0.0555085   0.0577109   0.0000000), wk =   0.0004931
        k(  552) = (   0.0555085   0.0577109   0.0785527), wk =   0.0004931
        k(  553) = (   0.0555085   0.0577109  -0.0785527), wk =   0.0004931
        k(  554) = (   0.0666102   0.0384739   0.0000000), wk =   0.0004931
        k(  555) = (   0.0666102   0.0384739   0.0785527), wk =   0.0004931
        k(  556) = (   0.0666102   0.0384739  -0.0785527), wk =   0.0004931
        k(  557) = (   0.0777119   0.0192370   0.0000000), wk =   0.0004931
        k(  558) = (   0.0777119   0.0192370   0.0785527), wk =   0.0004931
        k(  559) = (   0.0777119   0.0192370  -0.0785527), wk =   0.0004931
        k(  560) = (   0.0888136   0.0000000   0.0000000), wk =   0.0004931
        k(  561) = (   0.0888136   0.0000000   0.0785527), wk =   0.0004931
        k(  562) = (   0.0888136   0.0000000  -0.0785527), wk =   0.0004931
        k(  563) = (   0.0999153  -0.0192370   0.0000000), wk =   0.0004931
        k(  564) = (   0.0999153  -0.0192370   0.0785527), wk =   0.0004931
        k(  565) = (   0.0999153  -0.0192370  -0.0785527), wk =   0.0004931
        k(  566) = (   0.1110170  -0.0384739   0.0000000), wk =   0.0004931
        k(  567) = (   0.1110170  -0.0384739   0.0785527), wk =   0.0004931
        k(  568) = (   0.1110170  -0.0384739  -0.0785527), wk =   0.0004931
        k(  569) = (   0.1221187  -0.0577109   0.0000000), wk =   0.0004931
        k(  570) = (   0.1221187  -0.0577109   0.0785527), wk =   0.0004931
        k(  571) = (   0.1221187  -0.0577109  -0.0785527), wk =   0.0004931
        k(  572) = (   0.1332204  -0.0769478   0.0000000), wk =   0.0004931
        k(  573) = (   0.1332204  -0.0769478   0.0785527), wk =   0.0004931
        k(  574) = (   0.1332204  -0.0769478  -0.0785527), wk =   0.0004931
        k(  575) = (   0.1443221  -0.0961848   0.0000000), wk =   0.0004931
        k(  576) = (   0.1443221  -0.0961848   0.0785527), wk =   0.0004931
        k(  577) = (   0.1443221  -0.0961848  -0.0785527), wk =   0.0004931
        k(  578) = (   0.1554238  -0.1154217   0.0000000), wk =   0.0004931
        k(  579) = (   0.1554238  -0.1154217   0.0785527), wk =   0.0004931
        k(  580) = (   0.1554238  -0.1154217  -0.0785527), wk =   0.0004931
        k(  581) = (   0.1665255  -0.1346587   0.0000000), wk =   0.0004931
        k(  582) = (   0.1665255  -0.1346587   0.0785527), wk =   0.0004931
        k(  583) = (   0.1665255  -0.1346587  -0.0785527), wk =   0.0004931
        k(  584) = (   0.1776272  -0.1538956   0.0000000), wk =   0.0004931
        k(  585) = (   0.1776272  -0.1538956   0.0785527), wk =   0.0004931
        k(  586) = (   0.1776272  -0.1538956  -0.0785527), wk =   0.0004931
        k(  587) = (   0.1887289  -0.1731326   0.0000000), wk =   0.0004931
        k(  588) = (   0.1887289  -0.1731326   0.0785527), wk =   0.0004931
        k(  589) = (   0.1887289  -0.1731326  -0.0785527), wk =   0.0004931
        k(  590) = (   0.1998306  -0.1923696   0.0000000), wk =   0.0004931
        k(  591) = (   0.1998306  -0.1923696   0.0785527), wk =   0.0004931
        k(  592) = (   0.1998306  -0.1923696  -0.0785527), wk =   0.0004931
        k(  593) = (   0.2109323  -0.2116065   0.0000000), wk =   0.0004931
        k(  594) = (   0.2109323  -0.2116065   0.0785527), wk =   0.0004931
        k(  595) = (   0.2109323  -0.2116065  -0.0785527), wk =   0.0004931
        k(  596) = (   0.2220340  -0.2308435   0.0000000), wk =   0.0004931
        k(  597) = (   0.2220340  -0.2308435   0.0785527), wk =   0.0004931
        k(  598) = (   0.2220340  -0.2308435  -0.0785527), wk =   0.0004931
        k(  599) = (   0.2331357  -0.2500804   0.0000000), wk =   0.0004931
        k(  600) = (   0.2331357  -0.2500804   0.0785527), wk =   0.0004931
        k(  601) = (   0.2331357  -0.2500804  -0.0785527), wk =   0.0004931
        k(  602) = (   0.2442374  -0.2693174   0.0000000), wk =   0.0004931
        k(  603) = (   0.2442374  -0.2693174   0.0785527), wk =   0.0004931
        k(  604) = (   0.2442374  -0.2693174  -0.0785527), wk =   0.0004931
        k(  605) = (   0.2553391  -0.2885543   0.0000000), wk =   0.0004931
        k(  606) = (   0.2553391  -0.2885543   0.0785527), wk =   0.0004931
        k(  607) = (   0.2553391  -0.2885543  -0.0785527), wk =   0.0004931
        k(  608) = (   0.2664408  -0.3077913   0.0000000), wk =   0.0004931
        k(  609) = (   0.2664408  -0.3077913   0.0785527), wk =   0.0004931
        k(  610) = (   0.2664408  -0.3077913  -0.0785527), wk =   0.0004931
        k(  611) = (   0.2775425  -0.3270282   0.0000000), wk =   0.0004931
        k(  612) = (   0.2775425  -0.3270282   0.0785527), wk =   0.0004931
        k(  613) = (   0.2775425  -0.3270282  -0.0785527), wk =   0.0004931
        k(  614) = (   0.2886442  -0.3462652   0.0000000), wk =   0.0004931
        k(  615) = (   0.2886442  -0.3462652   0.0785527), wk =   0.0004931
        k(  616) = (   0.2886442  -0.3462652  -0.0785527), wk =   0.0004931
        k(  617) = (   0.2997459  -0.3655021   0.0000000), wk =   0.0004931
        k(  618) = (   0.2997459  -0.3655021   0.0785527), wk =   0.0004931
        k(  619) = (   0.2997459  -0.3655021  -0.0785527), wk =   0.0004931
        k(  620) = (   0.3108476  -0.3847391   0.0000000), wk =   0.0004931
        k(  621) = (   0.3108476  -0.3847391   0.0785527), wk =   0.0004931
        k(  622) = (   0.3108476  -0.3847391  -0.0785527), wk =   0.0004931
        k(  623) = (   0.3219493  -0.4039761   0.0000000), wk =   0.0004931
        k(  624) = (   0.3219493  -0.4039761   0.0785527), wk =   0.0004931
        k(  625) = (   0.3219493  -0.4039761  -0.0785527), wk =   0.0004931
        k(  626) = (  -0.2442374   0.5771087   0.0000000), wk =   0.0004931
        k(  627) = (  -0.2442374   0.5771087   0.0785527), wk =   0.0004931
        k(  628) = (  -0.2442374   0.5771087  -0.0785527), wk =   0.0004931
        k(  629) = (  -0.2331357   0.5578717   0.0000000), wk =   0.0004931
        k(  630) = (  -0.2331357   0.5578717   0.0785527), wk =   0.0004931
        k(  631) = (  -0.2331357   0.5578717  -0.0785527), wk =   0.0004931
        k(  632) = (  -0.2220340   0.5386347   0.0000000), wk =   0.0004931
        k(  633) = (  -0.2220340   0.5386347   0.0785527), wk =   0.0004931
        k(  634) = (  -0.2220340   0.5386347  -0.0785527), wk =   0.0004931
        k(  635) = (  -0.2109323   0.5193978   0.0000000), wk =   0.0004931
        k(  636) = (  -0.2109323   0.5193978   0.0785527), wk =   0.0004931
        k(  637) = (  -0.2109323   0.5193978  -0.0785527), wk =   0.0004931
        k(  638) = (  -0.1998306   0.5001608   0.0000000), wk =   0.0004931
        k(  639) = (  -0.1998306   0.5001608   0.0785527), wk =   0.0004931
        k(  640) = (  -0.1998306   0.5001608  -0.0785527), wk =   0.0004931
        k(  641) = (  -0.1887289   0.4809239   0.0000000), wk =   0.0004931
        k(  642) = (  -0.1887289   0.4809239   0.0785527), wk =   0.0004931
        k(  643) = (  -0.1887289   0.4809239  -0.0785527), wk =   0.0004931
        k(  644) = (  -0.1776272   0.4616869   0.0000000), wk =   0.0004931
        k(  645) = (  -0.1776272   0.4616869   0.0785527), wk =   0.0004931
        k(  646) = (  -0.1776272   0.4616869  -0.0785527), wk =   0.0004931
        k(  647) = (  -0.1665255   0.4424500   0.0000000), wk =   0.0004931
        k(  648) = (  -0.1665255   0.4424500   0.0785527), wk =   0.0004931
        k(  649) = (  -0.1665255   0.4424500  -0.0785527), wk =   0.0004931
        k(  650) = (  -0.1554238   0.4232130   0.0000000), wk =   0.0004931
        k(  651) = (  -0.1554238   0.4232130   0.0785527), wk =   0.0004931
        k(  652) = (  -0.1554238   0.4232130  -0.0785527), wk =   0.0004931
        k(  653) = (  -0.1443221   0.4039761   0.0000000), wk =   0.0004931
        k(  654) = (  -0.1443221   0.4039761   0.0785527), wk =   0.0004931
        k(  655) = (  -0.1443221   0.4039761  -0.0785527), wk =   0.0004931
        k(  656) = (  -0.1332204   0.3847391   0.0000000), wk =   0.0004931
        k(  657) = (  -0.1332204   0.3847391   0.0785527), wk =   0.0004931
        k(  658) = (  -0.1332204   0.3847391  -0.0785527), wk =   0.0004931
        k(  659) = (  -0.1221187   0.3655021   0.0000000), wk =   0.0004931
        k(  660) = (  -0.1221187   0.3655021   0.0785527), wk =   0.0004931
        k(  661) = (  -0.1221187   0.3655021  -0.0785527), wk =   0.0004931
        k(  662) = (  -0.1110170   0.3462652   0.0000000), wk =   0.0004931
        k(  663) = (  -0.1110170   0.3462652   0.0785527), wk =   0.0004931
        k(  664) = (  -0.1110170   0.3462652  -0.0785527), wk =   0.0004931
        k(  665) = (  -0.0999153   0.3270282   0.0000000), wk =   0.0004931
        k(  666) = (  -0.0999153   0.3270282   0.0785527), wk =   0.0004931
        k(  667) = (  -0.0999153   0.3270282  -0.0785527), wk =   0.0004931
        k(  668) = (  -0.0888136   0.3077913   0.0000000), wk =   0.0004931
        k(  669) = (  -0.0888136   0.3077913   0.0785527), wk =   0.0004931
        k(  670) = (  -0.0888136   0.3077913  -0.0785527), wk =   0.0004931
        k(  671) = (  -0.0777119   0.2885543   0.0000000), wk =   0.0004931
        k(  672) = (  -0.0777119   0.2885543   0.0785527), wk =   0.0004931
        k(  673) = (  -0.0777119   0.2885543  -0.0785527), wk =   0.0004931
        k(  674) = (  -0.0666102   0.2693174   0.0000000), wk =   0.0004931
        k(  675) = (  -0.0666102   0.2693174   0.0785527), wk =   0.0004931
        k(  676) = (  -0.0666102   0.2693174  -0.0785527), wk =   0.0004931
        k(  677) = (  -0.0555085   0.2500804   0.0000000), wk =   0.0004931
        k(  678) = (  -0.0555085   0.2500804   0.0785527), wk =   0.0004931
        k(  679) = (  -0.0555085   0.2500804  -0.0785527), wk =   0.0004931
        k(  680) = (  -0.0444068   0.2308435   0.0000000), wk =   0.0004931
        k(  681) = (  -0.0444068   0.2308435   0.0785527), wk =   0.0004931
        k(  682) = (  -0.0444068   0.2308435  -0.0785527), wk =   0.0004931
        k(  683) = (  -0.0333051   0.2116065   0.0000000), wk =   0.0004931
        k(  684) = (  -0.0333051   0.2116065   0.0785527), wk =   0.0004931
        k(  685) = (  -0.0333051   0.2116065  -0.0785527), wk =   0.0004931
        k(  686) = (  -0.0222034   0.1923696   0.0000000), wk =   0.0004931
        k(  687) = (  -0.0222034   0.1923696   0.0785527), wk =   0.0004931
        k(  688) = (  -0.0222034   0.1923696  -0.0785527), wk =   0.0004931
        k(  689) = (  -0.0111017   0.1731326   0.0000000), wk =   0.0004931
        k(  690) = (  -0.0111017   0.1731326   0.0785527), wk =   0.0004931
        k(  691) = (  -0.0111017   0.1731326  -0.0785527), wk =   0.0004931
        k(  692) = (   0.0000000   0.1538956   0.0000000), wk =   0.0004931
        k(  693) = (   0.0000000   0.1538956   0.0785527), wk =   0.0004931
        k(  694) = (   0.0000000   0.1538956  -0.0785527), wk =   0.0004931
        k(  695) = (   0.0111017   0.1346587   0.0000000), wk =   0.0004931
        k(  696) = (   0.0111017   0.1346587   0.0785527), wk =   0.0004931
        k(  697) = (   0.0111017   0.1346587  -0.0785527), wk =   0.0004931
        k(  698) = (   0.0222034   0.1154217   0.0000000), wk =   0.0004931
        k(  699) = (   0.0222034   0.1154217   0.0785527), wk =   0.0004931
        k(  700) = (   0.0222034   0.1154217  -0.0785527), wk =   0.0004931
        k(  701) = (   0.0333051   0.0961848   0.0000000), wk =   0.0004931
        k(  702) = (   0.0333051   0.0961848   0.0785527), wk =   0.0004931
        k(  703) = (   0.0333051   0.0961848  -0.0785527), wk =   0.0004931
        k(  704) = (   0.0555085   0.0961848   0.0000000), wk =   0.0004931
        k(  705) = (   0.0555085   0.0961848   0.0785527), wk =   0.0004931
        k(  706) = (   0.0555085   0.0961848  -0.0785527), wk =   0.0004931
        k(  707) = (   0.0666102   0.0769478   0.0000000), wk =   0.0004931
        k(  708) = (   0.0666102   0.0769478   0.0785527), wk =   0.0004931
        k(  709) = (   0.0666102   0.0769478  -0.0785527), wk =   0.0004931
        k(  710) = (   0.0777119   0.0577109   0.0000000), wk =   0.0004931
        k(  711) = (   0.0777119   0.0577109   0.0785527), wk =   0.0004931
        k(  712) = (   0.0777119   0.0577109  -0.0785527), wk =   0.0004931
        k(  713) = (   0.0888136   0.0384739   0.0000000), wk =   0.0004931
        k(  714) = (   0.0888136   0.0384739   0.0785527), wk =   0.0004931
        k(  715) = (   0.0888136   0.0384739  -0.0785527), wk =   0.0004931
        k(  716) = (   0.0999153   0.0192370   0.0000000), wk =   0.0004931
        k(  717) = (   0.0999153   0.0192370   0.0785527), wk =   0.0004931
        k(  718) = (   0.0999153   0.0192370  -0.0785527), wk =   0.0004931
        k(  719) = (   0.1110170   0.0000000   0.0000000), wk =   0.0004931
        k(  720) = (   0.1110170   0.0000000   0.0785527), wk =   0.0004931
        k(  721) = (   0.1110170   0.0000000  -0.0785527), wk =   0.0004931
        k(  722) = (   0.1221187  -0.0192370   0.0000000), wk =   0.0004931
        k(  723) = (   0.1221187  -0.0192370   0.0785527), wk =   0.0004931
        k(  724) = (   0.1221187  -0.0192370  -0.0785527), wk =   0.0004931
        k(  725) = (   0.1332204  -0.0384739   0.0000000), wk =   0.0004931
        k(  726) = (   0.1332204  -0.0384739   0.0785527), wk =   0.0004931
        k(  727) = (   0.1332204  -0.0384739  -0.0785527), wk =   0.0004931
        k(  728) = (   0.1443221  -0.0577109   0.0000000), wk =   0.0004931
        k(  729) = (   0.1443221  -0.0577109   0.0785527), wk =   0.0004931
        k(  730) = (   0.1443221  -0.0577109  -0.0785527), wk =   0.0004931
        k(  731) = (   0.1554238  -0.0769478   0.0000000), wk =   0.0004931
        k(  732) = (   0.1554238  -0.0769478   0.0785527), wk =   0.0004931
        k(  733) = (   0.1554238  -0.0769478  -0.0785527), wk =   0.0004931
        k(  734) = (   0.1665255  -0.0961848   0.0000000), wk =   0.0004931
        k(  735) = (   0.1665255  -0.0961848   0.0785527), wk =   0.0004931
        k(  736) = (   0.1665255  -0.0961848  -0.0785527), wk =   0.0004931
        k(  737) = (   0.1776272  -0.1154217   0.0000000), wk =   0.0004931
        k(  738) = (   0.1776272  -0.1154217   0.0785527), wk =   0.0004931
        k(  739) = (   0.1776272  -0.1154217  -0.0785527), wk =   0.0004931
        k(  740) = (   0.1887289  -0.1346587   0.0000000), wk =   0.0004931
        k(  741) = (   0.1887289  -0.1346587   0.0785527), wk =   0.0004931
        k(  742) = (   0.1887289  -0.1346587  -0.0785527), wk =   0.0004931
        k(  743) = (   0.1998306  -0.1538956   0.0000000), wk =   0.0004931
        k(  744) = (   0.1998306  -0.1538956   0.0785527), wk =   0.0004931
        k(  745) = (   0.1998306  -0.1538956  -0.0785527), wk =   0.0004931
        k(  746) = (   0.2109323  -0.1731326   0.0000000), wk =   0.0004931
        k(  747) = (   0.2109323  -0.1731326   0.0785527), wk =   0.0004931
        k(  748) = (   0.2109323  -0.1731326  -0.0785527), wk =   0.0004931
        k(  749) = (   0.2220340  -0.1923696   0.0000000), wk =   0.0004931
        k(  750) = (   0.2220340  -0.1923696   0.0785527), wk =   0.0004931
        k(  751) = (   0.2220340  -0.1923696  -0.0785527), wk =   0.0004931
        k(  752) = (   0.2331357  -0.2116065   0.0000000), wk =   0.0004931
        k(  753) = (   0.2331357  -0.2116065   0.0785527), wk =   0.0004931
        k(  754) = (   0.2331357  -0.2116065  -0.0785527), wk =   0.0004931
        k(  755) = (   0.2442374  -0.2308435   0.0000000), wk =   0.0004931
        k(  756) = (   0.2442374  -0.2308435   0.0785527), wk =   0.0004931
        k(  757) = (   0.2442374  -0.2308435  -0.0785527), wk =   0.0004931
        k(  758) = (   0.2553391  -0.2500804   0.0000000), wk =   0.0004931
        k(  759) = (   0.2553391  -0.2500804   0.0785527), wk =   0.0004931
        k(  760) = (   0.2553391  -0.2500804  -0.0785527), wk =   0.0004931
        k(  761) = (   0.2664408  -0.2693174   0.0000000), wk =   0.0004931
        k(  762) = (   0.2664408  -0.2693174   0.0785527), wk =   0.0004931
        k(  763) = (   0.2664408  -0.2693174  -0.0785527), wk =   0.0004931
        k(  764) = (   0.2775425  -0.2885543   0.0000000), wk =   0.0004931
        k(  765) = (   0.2775425  -0.2885543   0.0785527), wk =   0.0004931
        k(  766) = (   0.2775425  -0.2885543  -0.0785527), wk =   0.0004931
        k(  767) = (   0.2886442  -0.3077913   0.0000000), wk =   0.0004931
        k(  768) = (   0.2886442  -0.3077913   0.0785527), wk =   0.0004931
        k(  769) = (   0.2886442  -0.3077913  -0.0785527), wk =   0.0004931
        k(  770) = (   0.2997459  -0.3270282   0.0000000), wk =   0.0004931
        k(  771) = (   0.2997459  -0.3270282   0.0785527), wk =   0.0004931
        k(  772) = (   0.2997459  -0.3270282  -0.0785527), wk =   0.0004931
        k(  773) = (   0.3108476  -0.3462652   0.0000000), wk =   0.0004931
        k(  774) = (   0.3108476  -0.3462652   0.0785527), wk =   0.0004931
        k(  775) = (   0.3108476  -0.3462652  -0.0785527), wk =   0.0004931
        k(  776) = (   0.3219493  -0.3655021   0.0000000), wk =   0.0004931
        k(  777) = (   0.3219493  -0.3655021   0.0785527), wk =   0.0004931
        k(  778) = (   0.3219493  -0.3655021  -0.0785527), wk =   0.0004931
        k(  779) = (   0.3330510  -0.3847391   0.0000000), wk =   0.0004931
        k(  780) = (   0.3330510  -0.3847391   0.0785527), wk =   0.0004931
        k(  781) = (   0.3330510  -0.3847391  -0.0785527), wk =   0.0004931
        k(  782) = (  -0.2331357   0.5963456   0.0000000), wk =   0.0004931
        k(  783) = (  -0.2331357   0.5963456   0.0785527), wk =   0.0004931
        k(  784) = (  -0.2331357   0.5963456  -0.0785527), wk =   0.0004931
        k(  785) = (  -0.2220340   0.5771087   0.0000000), wk =   0.0004931
        k(  786) = (  -0.2220340   0.5771087   0.0785527), wk =   0.0004931
        k(  787) = (  -0.2220340   0.5771087  -0.0785527), wk =   0.0004931
        k(  788) = (  -0.2109323   0.5578717   0.0000000), wk =   0.0004931
        k(  789) = (  -0.2109323   0.5578717   0.0785527), wk =   0.0004931
        k(  790) = (  -0.2109323   0.5578717  -0.0785527), wk =   0.0004931
        k(  791) = (  -0.1998306   0.5386347   0.0000000), wk =   0.0004931
        k(  792) = (  -0.1998306   0.5386347   0.0785527), wk =   0.0004931
        k(  793) = (  -0.1998306   0.5386347  -0.0785527), wk =   0.0004931
        k(  794) = (  -0.1887289   0.5193978   0.0000000), wk =   0.0004931
        k(  795) = (  -0.1887289   0.5193978   0.0785527), wk =   0.0004931
        k(  796) = (  -0.1887289   0.5193978  -0.0785527), wk =   0.0004931
        k(  797) = (  -0.1776272   0.5001608   0.0000000), wk =   0.0004931
        k(  798) = (  -0.1776272   0.5001608   0.0785527), wk =   0.0004931
        k(  799) = (  -0.1776272   0.5001608  -0.0785527), wk =   0.0004931
        k(  800) = (  -0.1665255   0.4809239   0.0000000), wk =   0.0004931
        k(  801) = (  -0.1665255   0.4809239   0.0785527), wk =   0.0004931
        k(  802) = (  -0.1665255   0.4809239  -0.0785527), wk =   0.0004931
        k(  803) = (  -0.1554238   0.4616869   0.0000000), wk =   0.0004931
        k(  804) = (  -0.1554238   0.4616869   0.0785527), wk =   0.0004931
        k(  805) = (  -0.1554238   0.4616869  -0.0785527), wk =   0.0004931
        k(  806) = (  -0.1443221   0.4424500   0.0000000), wk =   0.0004931
        k(  807) = (  -0.1443221   0.4424500   0.0785527), wk =   0.0004931
        k(  808) = (  -0.1443221   0.4424500  -0.0785527), wk =   0.0004931
        k(  809) = (  -0.1332204   0.4232130   0.0000000), wk =   0.0004931
        k(  810) = (  -0.1332204   0.4232130   0.0785527), wk =   0.0004931
        k(  811) = (  -0.1332204   0.4232130  -0.0785527), wk =   0.0004931
        k(  812) = (  -0.1221187   0.4039761   0.0000000), wk =   0.0004931
        k(  813) = (  -0.1221187   0.4039761   0.0785527), wk =   0.0004931
        k(  814) = (  -0.1221187   0.4039761  -0.0785527), wk =   0.0004931
        k(  815) = (  -0.1110170   0.3847391   0.0000000), wk =   0.0004931
        k(  816) = (  -0.1110170   0.3847391   0.0785527), wk =   0.0004931
        k(  817) = (  -0.1110170   0.3847391  -0.0785527), wk =   0.0004931
        k(  818) = (  -0.0999153   0.3655021   0.0000000), wk =   0.0004931
        k(  819) = (  -0.0999153   0.3655021   0.0785527), wk =   0.0004931
        k(  820) = (  -0.0999153   0.3655021  -0.0785527), wk =   0.0004931
        k(  821) = (  -0.0888136   0.3462652   0.0000000), wk =   0.0004931
        k(  822) = (  -0.0888136   0.3462652   0.0785527), wk =   0.0004931
        k(  823) = (  -0.0888136   0.3462652  -0.0785527), wk =   0.0004931
        k(  824) = (  -0.0777119   0.3270282   0.0000000), wk =   0.0004931
        k(  825) = (  -0.0777119   0.3270282   0.0785527), wk =   0.0004931
        k(  826) = (  -0.0777119   0.3270282  -0.0785527), wk =   0.0004931
        k(  827) = (  -0.0666102   0.3077913   0.0000000), wk =   0.0004931
        k(  828) = (  -0.0666102   0.3077913   0.0785527), wk =   0.0004931
        k(  829) = (  -0.0666102   0.3077913  -0.0785527), wk =   0.0004931
        k(  830) = (  -0.0555085   0.2885543   0.0000000), wk =   0.0004931
        k(  831) = (  -0.0555085   0.2885543   0.0785527), wk =   0.0004931
        k(  832) = (  -0.0555085   0.2885543  -0.0785527), wk =   0.0004931
        k(  833) = (  -0.0444068   0.2693174   0.0000000), wk =   0.0004931
        k(  834) = (  -0.0444068   0.2693174   0.0785527), wk =   0.0004931
        k(  835) = (  -0.0444068   0.2693174  -0.0785527), wk =   0.0004931
        k(  836) = (  -0.0333051   0.2500804   0.0000000), wk =   0.0004931
        k(  837) = (  -0.0333051   0.2500804   0.0785527), wk =   0.0004931
        k(  838) = (  -0.0333051   0.2500804  -0.0785527), wk =   0.0004931
        k(  839) = (  -0.0222034   0.2308435   0.0000000), wk =   0.0004931
        k(  840) = (  -0.0222034   0.2308435   0.0785527), wk =   0.0004931
        k(  841) = (  -0.0222034   0.2308435  -0.0785527), wk =   0.0004931
        k(  842) = (  -0.0111017   0.2116065   0.0000000), wk =   0.0004931
        k(  843) = (  -0.0111017   0.2116065   0.0785527), wk =   0.0004931
        k(  844) = (  -0.0111017   0.2116065  -0.0785527), wk =   0.0004931
        k(  845) = (   0.0000000   0.1923696   0.0000000), wk =   0.0004931
        k(  846) = (   0.0000000   0.1923696   0.0785527), wk =   0.0004931
        k(  847) = (   0.0000000   0.1923696  -0.0785527), wk =   0.0004931
        k(  848) = (   0.0111017   0.1731326   0.0000000), wk =   0.0004931
        k(  849) = (   0.0111017   0.1731326   0.0785527), wk =   0.0004931
        k(  850) = (   0.0111017   0.1731326  -0.0785527), wk =   0.0004931
        k(  851) = (   0.0222034   0.1538956   0.0000000), wk =   0.0004931
        k(  852) = (   0.0222034   0.1538956   0.0785527), wk =   0.0004931
        k(  853) = (   0.0222034   0.1538956  -0.0785527), wk =   0.0004931
        k(  854) = (   0.0333051   0.1346587   0.0000000), wk =   0.0004931
        k(  855) = (   0.0333051   0.1346587   0.0785527), wk =   0.0004931
        k(  856) = (   0.0333051   0.1346587  -0.0785527), wk =   0.0004931
        k(  857) = (   0.0444068   0.1154217   0.0000000), wk =   0.0004931
        k(  858) = (   0.0444068   0.1154217   0.0785527), wk =   0.0004931
        k(  859) = (   0.0444068   0.1154217  -0.0785527), wk =   0.0004931
        k(  860) = (   0.0666102   0.1154217   0.0000000), wk =   0.0004931
        k(  861) = (   0.0666102   0.1154217   0.0785527), wk =   0.0004931
        k(  862) = (   0.0666102   0.1154217  -0.0785527), wk =   0.0004931
        k(  863) = (   0.0777119   0.0961848   0.0000000), wk =   0.0004931
        k(  864) = (   0.0777119   0.0961848   0.0785527), wk =   0.0004931
        k(  865) = (   0.0777119   0.0961848  -0.0785527), wk =   0.0004931
        k(  866) = (   0.0888136   0.0769478   0.0000000), wk =   0.0004931
        k(  867) = (   0.0888136   0.0769478   0.0785527), wk =   0.0004931
        k(  868) = (   0.0888136   0.0769478  -0.0785527), wk =   0.0004931
        k(  869) = (   0.0999153   0.0577109   0.0000000), wk =   0.0004931
        k(  870) = (   0.0999153   0.0577109   0.0785527), wk =   0.0004931
        k(  871) = (   0.0999153   0.0577109  -0.0785527), wk =   0.0004931
        k(  872) = (   0.1110170   0.0384739   0.0000000), wk =   0.0004931
        k(  873) = (   0.1110170   0.0384739   0.0785527), wk =   0.0004931
        k(  874) = (   0.1110170   0.0384739  -0.0785527), wk =   0.0004931
        k(  875) = (   0.1221187   0.0192370   0.0000000), wk =   0.0004931
        k(  876) = (   0.1221187   0.0192370   0.0785527), wk =   0.0004931
        k(  877) = (   0.1221187   0.0192370  -0.0785527), wk =   0.0004931
        k(  878) = (   0.1332204   0.0000000   0.0000000), wk =   0.0004931
        k(  879) = (   0.1332204   0.0000000   0.0785527), wk =   0.0004931
        k(  880) = (   0.1332204   0.0000000  -0.0785527), wk =   0.0004931
        k(  881) = (   0.1443221  -0.0192370   0.0000000), wk =   0.0004931
        k(  882) = (   0.1443221  -0.0192370   0.0785527), wk =   0.0004931
        k(  883) = (   0.1443221  -0.0192370  -0.0785527), wk =   0.0004931
        k(  884) = (   0.1554238  -0.0384739   0.0000000), wk =   0.0004931
        k(  885) = (   0.1554238  -0.0384739   0.0785527), wk =   0.0004931
        k(  886) = (   0.1554238  -0.0384739  -0.0785527), wk =   0.0004931
        k(  887) = (   0.1665255  -0.0577109   0.0000000), wk =   0.0004931
        k(  888) = (   0.1665255  -0.0577109   0.0785527), wk =   0.0004931
        k(  889) = (   0.1665255  -0.0577109  -0.0785527), wk =   0.0004931
        k(  890) = (   0.1776272  -0.0769478   0.0000000), wk =   0.0004931
        k(  891) = (   0.1776272  -0.0769478   0.0785527), wk =   0.0004931
        k(  892) = (   0.1776272  -0.0769478  -0.0785527), wk =   0.0004931
        k(  893) = (   0.1887289  -0.0961848   0.0000000), wk =   0.0004931
        k(  894) = (   0.1887289  -0.0961848   0.0785527), wk =   0.0004931
        k(  895) = (   0.1887289  -0.0961848  -0.0785527), wk =   0.0004931
        k(  896) = (   0.1998306  -0.1154217   0.0000000), wk =   0.0004931
        k(  897) = (   0.1998306  -0.1154217   0.0785527), wk =   0.0004931
        k(  898) = (   0.1998306  -0.1154217  -0.0785527), wk =   0.0004931
        k(  899) = (   0.2109323  -0.1346587   0.0000000), wk =   0.0004931
        k(  900) = (   0.2109323  -0.1346587   0.0785527), wk =   0.0004931
        k(  901) = (   0.2109323  -0.1346587  -0.0785527), wk =   0.0004931
        k(  902) = (   0.2220340  -0.1538956   0.0000000), wk =   0.0004931
        k(  903) = (   0.2220340  -0.1538956   0.0785527), wk =   0.0004931
        k(  904) = (   0.2220340  -0.1538956  -0.0785527), wk =   0.0004931
        k(  905) = (   0.2331357  -0.1731326   0.0000000), wk =   0.0004931
        k(  906) = (   0.2331357  -0.1731326   0.0785527), wk =   0.0004931
        k(  907) = (   0.2331357  -0.1731326  -0.0785527), wk =   0.0004931
        k(  908) = (   0.2442374  -0.1923696   0.0000000), wk =   0.0004931
        k(  909) = (   0.2442374  -0.1923696   0.0785527), wk =   0.0004931
        k(  910) = (   0.2442374  -0.1923696  -0.0785527), wk =   0.0004931
        k(  911) = (   0.2553391  -0.2116065   0.0000000), wk =   0.0004931
        k(  912) = (   0.2553391  -0.2116065   0.0785527), wk =   0.0004931
        k(  913) = (   0.2553391  -0.2116065  -0.0785527), wk =   0.0004931
        k(  914) = (   0.2664408  -0.2308435   0.0000000), wk =   0.0004931
        k(  915) = (   0.2664408  -0.2308435   0.0785527), wk =   0.0004931
        k(  916) = (   0.2664408  -0.2308435  -0.0785527), wk =   0.0004931
        k(  917) = (   0.2775425  -0.2500804   0.0000000), wk =   0.0004931
        k(  918) = (   0.2775425  -0.2500804   0.0785527), wk =   0.0004931
        k(  919) = (   0.2775425  -0.2500804  -0.0785527), wk =   0.0004931
        k(  920) = (   0.2886442  -0.2693174   0.0000000), wk =   0.0004931
        k(  921) = (   0.2886442  -0.2693174   0.0785527), wk =   0.0004931
        k(  922) = (   0.2886442  -0.2693174  -0.0785527), wk =   0.0004931
        k(  923) = (   0.2997459  -0.2885543   0.0000000), wk =   0.0004931
        k(  924) = (   0.2997459  -0.2885543   0.0785527), wk =   0.0004931
        k(  925) = (   0.2997459  -0.2885543  -0.0785527), wk =   0.0004931
        k(  926) = (   0.3108476  -0.3077913   0.0000000), wk =   0.0004931
        k(  927) = (   0.3108476  -0.3077913   0.0785527), wk =   0.0004931
        k(  928) = (   0.3108476  -0.3077913  -0.0785527), wk =   0.0004931
        k(  929) = (   0.3219493  -0.3270282   0.0000000), wk =   0.0004931
        k(  930) = (   0.3219493  -0.3270282   0.0785527), wk =   0.0004931
        k(  931) = (   0.3219493  -0.3270282  -0.0785527), wk =   0.0004931
        k(  932) = (   0.3330510  -0.3462652   0.0000000), wk =   0.0004931
        k(  933) = (   0.3330510  -0.3462652   0.0785527), wk =   0.0004931
        k(  934) = (   0.3330510  -0.3462652  -0.0785527), wk =   0.0004931
        k(  935) = (   0.3441527  -0.3655021   0.0000000), wk =   0.0004931
        k(  936) = (   0.3441527  -0.3655021   0.0785527), wk =   0.0004931
        k(  937) = (   0.3441527  -0.3655021  -0.0785527), wk =   0.0004931
        k(  938) = (  -0.2220340   0.6155826   0.0000000), wk =   0.0004931
        k(  939) = (  -0.2220340   0.6155826   0.0785527), wk =   0.0004931
        k(  940) = (  -0.2220340   0.6155826  -0.0785527), wk =   0.0004931
        k(  941) = (  -0.2109323   0.5963456   0.0000000), wk =   0.0004931
        k(  942) = (  -0.2109323   0.5963456   0.0785527), wk =   0.0004931
        k(  943) = (  -0.2109323   0.5963456  -0.0785527), wk =   0.0004931
        k(  944) = (  -0.1998306   0.5771087   0.0000000), wk =   0.0004931
        k(  945) = (  -0.1998306   0.5771087   0.0785527), wk =   0.0004931
        k(  946) = (  -0.1998306   0.5771087  -0.0785527), wk =   0.0004931
        k(  947) = (  -0.1887289   0.5578717   0.0000000), wk =   0.0004931
        k(  948) = (  -0.1887289   0.5578717   0.0785527), wk =   0.0004931
        k(  949) = (  -0.1887289   0.5578717  -0.0785527), wk =   0.0004931
        k(  950) = (  -0.1776272   0.5386347   0.0000000), wk =   0.0004931
        k(  951) = (  -0.1776272   0.5386347   0.0785527), wk =   0.0004931
        k(  952) = (  -0.1776272   0.5386347  -0.0785527), wk =   0.0004931
        k(  953) = (  -0.1665255   0.5193978   0.0000000), wk =   0.0004931
        k(  954) = (  -0.1665255   0.5193978   0.0785527), wk =   0.0004931
[...]
     1.0000   1.0000   1.0000   1.0000   1.0000   1.0000   1.0000   1.0000
     1.0000   1.0000   1.0000   1.0000   1.0000   1.0000   1.0000   1.0000
     1.0000   1.0000   0.0000   0.0000   0.0000   0.0000   0.0000   0.0000
     0.0000

          k =-0.1110-0.8080-0.0786 (  6703 PWs)   bands (ev):

   -12.9656 -12.6862  -6.4256  -6.0763  -1.1908  -0.9369   0.1692   0.2303
     0.5559   0.5934   1.7946   2.0978   2.5485   2.8753   3.1029   3.4477
     5.2775   5.6562   8.2236   8.5747  10.1861  10.2814  10.8531  11.3661
    11.6678

     occupation numbers 
     1.0000   1.0000   1.0000   1.0000   1.0000   1.0000   1.0000   1.0000
     1.0000   1.0000   1.0000   1.0000   1.0000   1.0000   1.0000   1.0000
     1.0000   1.0000   0.0000   0.0000   0.0000   0.0000   0.0000   0.0000
     0.0000

          k =-0.0999-0.8272 0.0000 (  6712 PWs)   bands (ev):

   -12.9653 -12.6859  -6.4216  -6.0723  -1.2448  -0.9845   0.1047   0.2803
     0.4903   0.6346   1.7124   2.2528   2.6887   2.9322   3.1015   3.5228
     5.1947   5.6712   8.1127   8.4922  10.1073  10.5435  10.8715  11.2691
    11.5465

     occupation numbers 
     1.0000   1.0000   1.0000   1.0000   1.0000   1.0000   1.0000   1.0000
     1.0000   1.0000   1.0000   1.0000   1.0000   1.0000   1.0000   1.0000
     1.0000   1.0000   0.0000   0.0000   0.0000   0.0000   0.0000   0.0000
     0.0000

          k =-0.0999-0.8272 0.0786 (  6713 PWs)   bands (ev):

   -12.9653 -12.6859  -6.4216  -6.0723  -1.2433  -0.9862   0.1070   0.2772
     0.4840   0.6347   1.8174   2.0919   2.7095   2.9578   3.1861   3.4443
     5.2409   5.6336   8.1367   8.4789  10.0532  10.5779  10.7959  11.4022
    11.5283

     occupation numbers 
     1.0000   1.0000   1.0000   1.0000   1.0000   1.0000   1.0000   1.0000
     1.0000   1.0000   1.0000   1.0000   1.0000   1.0000   1.0000   1.0000
     1.0000   1.0000   0.0000   0.0000   0.0000   0.0000   0.0000   0.0000
     0.0000

          k =-0.0999-0.8272-0.0786 (  6713 PWs)   bands (ev):

   -12.9653 -12.6859  -6.4216  -6.0723  -1.2422  -0.9878   0.1059   0.2820
     0.4815   0.6348   1.8058   2.1125   2.6811   3.0067   3.1392   3.4608
     5.2499   5.6258   8.1084   8.4992  10.2220  10.3489  10.8698  11.3481
    11.6444

     occupation numbers 
     1.0000   1.0000   1.0000   1.0000   1.0000   1.0000   1.0000   1.0000
     1.0000   1.0000   1.0000   1.0000   1.0000   1.0000   1.0000   1.0000
     1.0000   1.0000   0.0000   0.0000   0.0000   0.0000   0.0000   0.0000
     0.0000

          k =-0.0888-0.8464 0.0000 (  6718 PWs)   bands (ev):

   -12.9650 -12.6856  -6.4169  -6.0674  -1.3002  -1.0392   0.0169   0.2927
     0.4588   0.7027   1.7308   2.2639   2.7825   3.0206   3.2532   3.5462
     5.1550   5.6390   7.9851   8.4268  10.1208  10.5120  10.9084  11.2557
    11.6026

     occupation numbers 
     1.0000   1.0000   1.0000   1.0000   1.0000   1.0000   1.0000   1.0000
     1.0000   1.0000   1.0000   1.0000   1.0000   1.0000   1.0000   1.0000
     1.0000   1.0000   0.0000   0.0000   0.0000   0.0000   0.0000   0.0000
     0.0000

          k =-0.0888-0.8464 0.0786 (  6714 PWs)   bands (ev):

   -12.9650 -12.6856  -6.4169  -6.0674  -1.2988  -1.0409   0.0191   0.2871
     0.4566   0.7020   1.8303   2.1079   2.8343   3.0628   3.2780   3.4770
     5.2091   5.5963   8.0213   8.3899  10.0586  10.6028  10.8345  11.3724
    11.5413

     occupation numbers 
     1.0000   1.0000   1.0000   1.0000   1.0000   1.0000   1.0000   1.0000
     1.0000   1.0000   1.0000   1.0000   1.0000   1.0000   1.0000   1.0000
     1.0000   1.0000   0.0000   0.0000   0.0000   0.0000   0.0000   0.0000
     0.0000

          k =-0.0888-0.8464-0.0786 (  6714 PWs)   bands (ev):

   -12.9650 -12.6856  -6.4169  -6.0674  -1.2977  -1.0426   0.0192   0.2907
     0.4541   0.7021   1.8201   2.1255   2.8092   3.0965   3.2450   3.4933
     5.2176   5.5896   7.9881   8.4166  10.1781  10.4276  10.9193  11.3208
    11.6285

     occupation numbers 
     1.0000   1.0000   1.0000   1.0000   1.0000   1.0000   1.0000   1.0000
     1.0000   1.0000   1.0000   1.0000   1.0000   1.0000   1.0000   1.0000
     1.0000   1.0000   0.0000   0.0000   0.0000   0.0000   0.0000   0.0000
     0.0000

          k =-0.0777-0.8657 0.0000 (  6713 PWs)   bands (ev):

   -12.9646 -12.6852  -6.4116  -6.0620  -1.3557  -1.0940  -0.0768   0.2261
     0.5119   0.7813   1.7518   2.2698   2.8277   3.1511   3.3985   3.6090
     5.1150   5.5990   7.8619   8.3602  10.0602  10.4661  10.9631  11.2536
    11.6138

     occupation numbers 
     1.0000   1.0000   1.0000   1.0000   1.0000   1.0000   1.0000   1.0000
     1.0000   1.0000   1.0000   1.0000   1.0000   1.0000   1.0000   1.0000
     1.0000   1.0000   0.0000   0.0000   0.0000   0.0000   0.0000   0.0000
     0.0000

          k =-0.0777-0.8657 0.0786 (  6712 PWs)   bands (ev):

   -12.9646 -12.6852  -6.4116  -6.0620  -1.3543  -1.0957  -0.0744   0.2194
     0.5113   0.7806   1.8454   2.1224   2.9140   3.1687   3.3748   3.5721
     5.1761   5.5539   7.9048   8.3019  10.0228  10.5769  10.8744  11.3254
    11.5787

     occupation numbers 
     1.0000   1.0000   1.0000   1.0000   1.0000   1.0000   1.0000   1.0000
     1.0000   1.0000   1.0000   1.0000   1.0000   1.0000   1.0000   1.0000
     1.0000   1.0000   0.0000   0.0000   0.0000   0.0000   0.0000   0.0000
     0.0000

          k =-0.0777-0.8657-0.0786 (  6712 PWs)   bands (ev):

   -12.9646 -12.6852  -6.4116  -6.0620  -1.3532  -1.0974  -0.0737   0.2207
     0.5105   0.7805   1.8364   2.1378   2.8938   3.1807   3.3685   3.5794
     5.1833   5.5492   7.8703   8.3304  10.1056  10.4529  10.9823  11.2706
    11.5693

     occupation numbers 
     1.0000   1.0000   1.0000   1.0000   1.0000   1.0000   1.0000   1.0000
     1.0000   1.0000   1.0000   1.0000   1.0000   1.0000   1.0000   1.0000
     1.0000   1.0000   0.0000   0.0000   0.0000   0.0000   0.0000   0.0000
     0.0000

          k =-0.0666-0.8849 0.0000 (  6715 PWs)   bands (ev):

   -12.9642 -12.6848  -6.4062  -6.0564  -1.4082  -1.1460  -0.1679   0.1406
     0.5892   0.8626   1.7744   2.2725   2.8440   3.2808   3.5094   3.7426
     5.0778   5.5529   7.7485   8.2930   9.9633  10.4020  10.9884  11.2028
    11.4625

     occupation numbers 
     1.0000   1.0000   1.0000   1.0000   1.0000   1.0000   1.0000   1.0000
     1.0000   1.0000   1.0000   1.0000   1.0000   1.0000   1.0000   1.0000
     1.0000   1.0000   0.0000   0.0000   0.0000   0.0000   0.0000   0.0000
     0.0000

          k =-0.0666-0.8849 0.0786 (  6715 PWs)   bands (ev):

   -12.9642 -12.6848  -6.4062  -6.0564  -1.4068  -1.1476  -0.1651   0.1338
     0.5888   0.8620   1.8618   2.1356   2.9465   3.2560   3.4778   3.7314
     5.1439   5.5086   7.7928   8.2174   9.9597  10.5096  10.8849  11.2144
    11.5974

     occupation numbers 
     1.0000   1.0000   1.0000   1.0000   1.0000   1.0000   1.0000   1.0000
     1.0000   1.0000   1.0000   1.0000   1.0000   1.0000   1.0000   1.0000
     1.0000   1.0000   0.0000   0.0000   0.0000   0.0000   0.0000   0.0000
     0.0000

          k =-0.0666-0.8849-0.0786 (  6715 PWs)   bands (ev):

   -12.9642 -12.6848  -6.4062  -6.0564  -1.4058  -1.1493  -0.1642   0.1343
     0.5887   0.8619   1.8539   2.1495   2.9288   3.2609   3.4833   3.7324
     5.1491   5.5063   7.7601   8.2439  10.0156  10.4334  11.0050  11.1790
    11.4519

     occupation numbers 
     1.0000   1.0000   1.0000   1.0000   1.0000   1.0000   1.0000   1.0000
     1.0000   1.0000   1.0000   1.0000   1.0000   1.0000   1.0000   1.0000
     1.0000   1.0000   0.0000   0.0000   0.0000   0.0000   0.0000   0.0000
     0.0000

          k =-0.0555-0.9041 0.0000 (  6723 PWs)   bands (ev):

   -12.9638 -12.6844  -6.4009  -6.0510  -1.4555  -1.1929  -0.2509   0.0595
     0.6668   0.9409   1.7976   2.2728   2.8488   3.3580   3.6357   3.9135
     5.0454   5.5030   7.6480   8.2269   9.8541  10.3294  10.9410  11.0885
    11.2789

     occupation numbers 
     1.0000   1.0000   1.0000   1.0000   1.0000   1.0000   1.0000   1.0000
     1.0000   1.0000   1.0000   1.0000   1.0000   1.0000   1.0000   1.0000
     1.0000   1.0000   0.0000   0.0000   0.0000   0.0000   0.0000   0.0000
     0.0000

          k =-0.0555-0.9041 0.0786 (  6711 PWs)   bands (ev):

   -12.9638 -12.6844  -6.4009  -6.0510  -1.4542  -1.1944  -0.2477   0.0526
     0.6666   0.9404   1.8784   2.1478   2.9560   3.2930   3.6229   3.9099
     5.1143   5.4631   7.6893   8.1384   9.8814  10.4169  10.8594  11.0460
    11.5154

     occupation numbers 
     1.0000   1.0000   1.0000   1.0000   1.0000   1.0000   1.0000   1.0000
     1.0000   1.0000   1.0000   1.0000   1.0000   1.0000   1.0000   1.0000
     1.0000   1.0000   0.0000   0.0000   0.0000   0.0000   0.0000   0.0000
     0.0000

          k =-0.0555-0.9041-0.0786 (  6711 PWs)   bands (ev):

   -12.9638 -12.6844  -6.4009  -6.0510  -1.4532  -1.1960  -0.2467   0.0526
     0.6666   0.9403   1.8716   2.1604   2.9391   3.3002   3.6270   3.9097
     5.1174   5.4630   7.6607   8.1604   9.9166  10.3830  10.9541  11.0460
    11.3279

     occupation numbers 
     1.0000   1.0000   1.0000   1.0000   1.0000   1.0000   1.0000   1.0000
     1.0000   1.0000   1.0000   1.0000   1.0000   1.0000   1.0000   1.0000
     1.0000   1.0000   0.0000   0.0000   0.0000   0.0000   0.0000   0.0000
     0.0000

          k =-0.0444-0.9234 0.0000 (  6718 PWs)   bands (ev):

   -12.9635 -12.6841  -6.3960  -6.0459  -1.4960  -1.2331  -0.3224  -0.0110
     0.7374   1.0116   1.8201   2.2714   2.8486   3.3899   3.7837   4.0838
     5.0192   5.4527   7.5621   8.1649   9.7451  10.2560  10.7986  10.9668
    11.1730

     occupation numbers 
     1.0000   1.0000   1.0000   1.0000   1.0000   1.0000   1.0000   1.0000
     1.0000   1.0000   1.0000   1.0000   1.0000   1.0000   1.0000   1.0000
     1.0000   1.0000   0.0000   0.0000   0.0000   0.0000   0.0000   0.0000
     0.0000

          k =-0.0444-0.9234 0.0786 (  6717 PWs)   bands (ev):

   -12.9635 -12.6841  -6.3960  -6.0459  -1.4947  -1.2346  -0.3188  -0.0181
     0.7372   1.0112   1.8942   2.1587   2.9555   3.3049   3.7799   4.0825
     5.0886   5.4201   7.5978   8.0672   9.7960  10.3137  10.7818  10.9056
    11.3897

     occupation numbers 
     1.0000   1.0000   1.0000   1.0000   1.0000   1.0000   1.0000   1.0000
     1.0000   1.0000   1.0000   1.0000   1.0000   1.0000   1.0000   1.0000
     1.0000   1.0000   0.0000   0.0000   0.0000   0.0000   0.0000   0.0000
     0.0000

          k =-0.0444-0.9234-0.0786 (  6717 PWs)   bands (ev):

   -12.9635 -12.6841  -6.3960  -6.0459  -1.4939  -1.2359  -0.3179  -0.0182
     0.7373   1.0111   1.8883   2.1697   2.9398   3.3135   3.7818   4.0824
     5.0899   5.4217   7.5747   8.0837   9.8156  10.3103  10.8263  10.9284
    11.2460

     occupation numbers 
     1.0000   1.0000   1.0000   1.0000   1.0000   1.0000   1.0000   1.0000
     1.0000   1.0000   1.0000   1.0000   1.0000   1.0000   1.0000   1.0000
     1.0000   1.0000   0.0000   0.0000   0.0000   0.0000   0.0000   0.0000
     0.0000

          k =-0.0333-0.9426 0.0000 (  6720 PWs)   bands (ev):

   -12.9632 -12.6838  -6.3919  -6.0417  -1.5285  -1.2655  -0.3800  -0.0680
     0.7965   1.0708   1.8402   2.2689   2.8462   3.4034   3.9236   4.2352
     4.9997   5.4062   7.4923   8.1103   9.6452  10.1880  10.6332  10.8517
    11.1326

     occupation numbers 
     1.0000   1.0000   1.0000   1.0000   1.0000   1.0000   1.0000   1.0000
     1.0000   1.0000   1.0000   1.0000   1.0000   1.0000   1.0000   1.0000
     1.0000   1.0000   0.0000   0.0000   0.0000   0.0000   0.0000   0.0000
     0.0000

          k =-0.0333-0.9426 0.0786 (  6721 PWs)   bands (ev):

   -12.9632 -12.6838  -6.3919  -6.0417  -1.5273  -1.2669  -0.3760  -0.0753
     0.7964   1.0705   1.9078   2.1680   2.9506   3.3083   3.9226   4.2349
     5.0675   5.3827   7.5212   8.0066   9.7115  10.2136  10.6533  10.8399
    11.2850

     occupation numbers 
     1.0000   1.0000   1.0000   1.0000   1.0000   1.0000   1.0000   1.0000
     1.0000   1.0000   1.0000   1.0000   1.0000   1.0000   1.0000   1.0000
     1.0000   1.0000   0.0000   0.0000   0.0000   0.0000   0.0000   0.0000
     0.0000

          k =-0.0333-0.9426-0.0786 (  6721 PWs)   bands (ev):

   -12.9632 -12.6838  -6.3919  -6.0417  -1.5267  -1.2680  -0.3753  -0.0754
     0.7964   1.0705   1.9031   2.1771   2.9373   3.3165   3.9234   4.2349
     5.0677   5.3851   7.5042   8.0176   9.7206  10.2251  10.6803  10.8484
    11.1951

     occupation numbers 
     1.0000   1.0000   1.0000   1.0000   1.0000   1.0000   1.0000   1.0000
     1.0000   1.0000   1.0000   1.0000   1.0000   1.0000   1.0000   1.0000
     1.0000   1.0000   0.0000   0.0000   0.0000   0.0000   0.0000   0.0000
     0.0000

          k =-0.0222-0.9618 0.0000 (  6734 PWs)   bands (ev):

   -12.9630 -12.6836  -6.3887  -6.0384  -1.5523  -1.2892  -0.4222  -0.1097
     0.8411   1.1155   1.8564   2.2661   2.8434   3.4095   4.0361   4.3551
     4.9863   5.3680   7.4403   8.0671   9.5637  10.1319  10.4982  10.7652
    11.1142

     occupation numbers 
     1.0000   1.0000   1.0000   1.0000   1.0000   1.0000   1.0000   1.0000
     1.0000   1.0000   1.0000   1.0000   1.0000   1.0000   1.0000   1.0000
     1.0000   1.0000   0.0000   0.0000   0.0000   0.0000   0.0000   0.0000
     0.0000

          k =-0.0222-0.9618 0.0786 (  6713 PWs)   bands (ev):

   -12.9630 -12.6836  -6.3887  -6.0384  -1.5511  -1.2907  -0.4179  -0.1172
     0.8410   1.1154   1.9182   2.1756   2.9444   3.3093   4.0360   4.3551
     5.0516   5.3537   7.4627   7.9598   9.6381  10.1300  10.5469  10.8000
    11.2117

     occupation numbers 
     1.0000   1.0000   1.0000   1.0000   1.0000   1.0000   1.0000   1.0000
     1.0000   1.0000   1.0000   1.0000   1.0000   1.0000   1.0000   1.0000
     1.0000   1.0000   0.0000   0.0000   0.0000   0.0000   0.0000   0.0000
     0.0000

          k =-0.0222-0.9618-0.0786 (  6713 PWs)   bands (ev):

   -12.9630 -12.6836  -6.3887  -6.0384  -1.5506  -1.2914  -0.4174  -0.1173
     0.8410   1.1153   1.9148   2.1821   2.9347   3.3155   4.0362   4.3552
     5.0513   5.3558   7.4518   7.9662   9.6414  10.1432  10.5665  10.7960
    11.1627

     occupation numbers 
     1.0000   1.0000   1.0000   1.0000   1.0000   1.0000   1.0000   1.0000
     1.0000   1.0000   1.0000   1.0000   1.0000   1.0000   1.0000   1.0000
     1.0000   1.0000   0.0000   0.0000   0.0000   0.0000   0.0000   0.0000
     0.0000

          k =-0.0111-0.9811 0.0000 (  6736 PWs)   bands (ev):

   -12.9628 -12.6834  -6.3867  -6.0364  -1.5668  -1.3036  -0.4479  -0.1352
     0.8688   1.1433   1.8669   2.2639   2.8413   3.4122   4.1088   4.4327
     4.9782   5.3428   7.4079   8.0392   9.5099  10.0942  10.4128  10.7138
    11.1050

     occupation numbers 
     1.0000   1.0000   1.0000   1.0000   1.0000   1.0000   1.0000   1.0000
     1.0000   1.0000   1.0000   1.0000   1.0000   1.0000   1.0000   1.0000
     1.0000   1.0000   0.0000   0.0000   0.0000   0.0000   0.0000   0.0000
     0.0000

          k =-0.0111-0.9811 0.0786 (  6708 PWs)   bands (ev):

   -12.9628 -12.6834  -6.3867  -6.0364  -1.5655  -1.3052  -0.4434  -0.1427
     0.8688   1.1433   1.9245   2.1810   2.9388   3.3099   4.1089   4.4327
     5.0414   5.3354   7.4252   7.9302   9.5876  10.0752  10.4847  10.7736
    11.1671

     occupation numbers 
     1.0000   1.0000   1.0000   1.0000   1.0000   1.0000   1.0000   1.0000
     1.0000   1.0000   1.0000   1.0000   1.0000   1.0000   1.0000   1.0000
     1.0000   1.0000   0.0000   0.0000   0.0000   0.0000   0.0000   0.0000
     0.0000

          k =-0.0111-0.9811-0.0786 (  6708 PWs)   bands (ev):

   -12.9628 -12.6834  -6.3867  -6.0364  -1.5653  -1.3056  -0.4431  -0.1428
     0.8688   1.1433   1.9227   2.1844   2.9337   3.3133   4.1089   4.4327
     5.0412   5.3366   7.4200   7.9330   9.5884  10.0830  10.4955  10.7684
    11.1461

     occupation numbers 
     1.0000   1.0000   1.0000   1.0000   1.0000   1.0000   1.0000   1.0000
     1.0000   1.0000   1.0000   1.0000   1.0000   1.0000   1.0000   1.0000
     1.0000   1.0000   0.0000   0.0000   0.0000   0.0000   0.0000   0.0000
     0.0000

          k =-0.5773 0.0000 0.0000 (  6730 PWs)   bands (ev):

   -12.9628 -12.6834  -6.3861  -6.0357  -1.5716  -1.3084  -0.4565  -0.1437
     0.8782   1.1527   1.8706   2.2630   2.8405   3.4130   4.1339   4.4597
     4.9754   5.3340   7.3969   8.0295   9.4911  10.0809  10.3839  10.6969
    11.1021

     occupation numbers 
     1.0000   1.0000   1.0000   1.0000   1.0000   1.0000   1.0000   1.0000
     1.0000   1.0000   1.0000   1.0000   1.0000   1.0000   1.0000   1.0000
     1.0000   1.0000   0.0000   0.0000   0.0000   0.0000   0.0000   0.0000
     0.0000

          k =-0.5773 0.0000 0.0786 (  6714 PWs)   bands (ev):

   -12.9628 -12.6834  -6.3860  -6.0357  -1.5703  -1.3102  -0.4518  -0.1513
     0.8782   1.1528   1.9260   2.1840   2.9350   3.3112   4.1340   4.4596
     5.0378   5.3295   7.4107   7.9208   9.5697  10.0585  10.4682  10.7620
    11.1467

     occupation numbers 
     1.0000   1.0000   1.0000   1.0000   1.0000   1.0000   1.0000   1.0000
     1.0000   1.0000   1.0000   1.0000   1.0000   1.0000   1.0000   1.0000
     1.0000   1.0000   0.0000   0.0000   0.0000   0.0000   0.0000   0.0000
     0.0000

     the Fermi energy is     5.9116 ev
     (compare with:     5.9118 eV, computed in scf)

     Writing all to output data dir ./work/Al2SO.save/
 
     init_run     :      4.29s CPU      4.35s WALL (       1 calls)
     electrons    :   3121.58s CPU   4196.08s WALL (       1 calls)

     Called by init_run:
     wfcinit      :      0.00s CPU      0.00s WALL (       1 calls)
     wfcinit:atom :      0.39s CPU      0.45s WALL (    4058 calls)
     wfcinit:wfcr :     58.36s CPU     86.04s WALL (    4058 calls)
     potinit      :      4.03s CPU      4.06s WALL (       1 calls)
     hinit0       :      0.10s CPU      0.11s WALL (       1 calls)

     Called by electrons:
     c_bands      :   3120.94s CPU   4195.42s WALL (       1 calls)
     v_of_rho     :      3.95s CPU      3.97s WALL (       1 calls)
     v_h          :      0.00s CPU      0.00s WALL (       1 calls)
     v_xc         :      3.95s CPU      3.97s WALL (       1 calls)
     newd         :      0.02s CPU      0.04s WALL (       1 calls)
     PAW_pot      :      0.08s CPU      0.09s WALL (       1 calls)
     vdW_kernel   :      3.91s CPU      3.92s WALL (       1 calls)

     Called by c_bands:
     init_us_2    :      0.95s CPU      1.11s WALL (    4058 calls)
     init_us_2:cp :      0.94s CPU      1.10s WALL (    4058 calls)
     cegterg      :   3045.64s CPU   4091.38s WALL (   22513 calls)

     Called by sum_band:

     Called by *egterg:
     cdiaghg      :    225.53s CPU    256.67s WALL (  426994 calls)
     cegterg:over :    172.67s CPU    200.94s WALL (  422936 calls)
     cegterg:upda :     63.74s CPU     70.83s WALL (  422936 calls)
     cegterg:last :    167.21s CPU    179.01s WALL (  189405 calls)
     h_psi        :   2273.81s CPU   3240.25s WALL (  449507 calls)
     s_psi        :    137.23s CPU    159.18s WALL (  449507 calls)
     g_psi        :      5.40s CPU      5.89s WALL (  422936 calls)

     Called by h_psi:
     h_psi:calbec :    260.26s CPU    363.43s WALL (  449507 calls)
     vloc_psi     :   1761.70s CPU   2569.22s WALL (  449507 calls)
     add_vuspsi   :    242.70s CPU    297.44s WALL (  449507 calls)

     General routines
     calbec       :    259.58s CPU    362.63s WALL (  449507 calls)
     fft          :      0.02s CPU      0.02s WALL (      62 calls)
     fftw         :   1696.52s CPU   2479.31s WALL (10112804 calls)
     davcio       :      0.66s CPU      1.10s WALL (    8116 calls)
 
     Parallel routines

     PAW routines
     PAW_pot      :      0.08s CPU      0.09s WALL (       1 calls)
 
     PWSCF        :  52m17.95s CPU      1h10m WALL

 
   This run was terminated on:  16:17:12  12Jun2023            

=------------------------------------------------------------------------------=
   JOB DONE.
=------------------------------------------------------------------------------=
