
     Program PWSCF v.7.1 starts on 25Jun2023 at  4:52:18 

     This program is part of the open-source Quantum ESPRESSO suite
     for quantum simulation of materials; please cite
         "P. Giannozzi et al., J. Phys.:Condens. Matter 21 395502 (2009);
         "P. Giannozzi et al., J. Phys.:Condens. Matter 29 465901 (2017);
         "P. Giannozzi et al., J. Chem. Phys. 152 154105 (2020);
          URL http://www.quantum-espresso.org", 
     in publications or presentations arising from this work. More details at
     http://www.quantum-espresso.org/quote

     Parallel version (MPI), running on    10 processors

     MPI processes distributed on     1 nodes
     1684 MiB available memory on the printing compute node when the environment starts
 
     Waiting for input...
     Reading input from standard input

     Current dimensions of program PWSCF are:
     Max number of different atomic species (ntypx) = 10
     Max number of k-points (npk) =  40000
     Max angular momentum in pseudopotentials (lmaxx) =  4
     Message from routine volume:
     axis vectors are left-handed
     file Al.pbe-n-kjpaw_psl.1.0.0.UPF: wavefunction(s)  3S 3P renormalized
     file O.pbe-n-kjpaw_psl.1.0.0.UPF: wavefunction(s)  2S 2P renormalized
     Message from routine setup:
     using ibrav=0 with symmetry is DISCOURAGED, use correct ibrav instead
 
     R & G space division:  proc/nbgrp/npool/nimage =      10
     Subspace diagonalization in iterative solution of the eigenvalue problem:
     a serial algorithm will be used

 
     Parallelization info
     --------------------
     sticks:   dense  smooth     PW     G-vecs:    dense   smooth      PW
     Min          62      62     19                 4008     4008     707
     Max          63      63     20                 4011     4011     718
     Sum         625     625    199                40097    40097    7153
 
     Using Slab Decomposition
 


     bravais-lattice index     =            0
     lattice parameter (alat)  =       6.1344  a.u.
     unit-cell volume          =     640.3079 (a.u.)^3
     number of atoms/cell      =            8
     number of atomic types    =            2
     number of electrons       =        36.00
     number of Kohn-Sham states=           70
     kinetic-energy cutoff     =      60.0000  Ry
     charge density cutoff     =     240.0000  Ry
     scf convergence threshold =      1.0E-08
     mixing beta               =       0.5000
     number of iterations used =            8  plain     mixing
     Exchange-correlation= SLA  PW   PBX  PBC
                           (   1   4   3   4   0   0   0)

     celldm(1)=   6.134387  celldm(2)=   0.000000  celldm(3)=   0.000000
     celldm(4)=   0.000000  celldm(5)=   0.000000  celldm(6)=   0.000000

     crystal axes: (cart. coord. in units of alat)
               a(1) = (   0.865734   0.500504   0.000000 )  
               a(2) = (   0.865734  -0.500504   0.000000 )  
               a(3) = (   0.000000   0.000000   3.200761 )  

     reciprocal axes: (cart. coord. in units 2 pi/alat)
               b(1) = (  0.577544  0.998993  0.000000 )  
               b(2) = (  0.577544 -0.998993  0.000000 )  
               b(3) = (  0.000000  0.000000  0.312426 )  


     PseudoPot. # 1 for Al read from file:
     /home/mainadmin/research/danu/pseudo/Al.pbe-n-kjpaw_psl.1.0.0.UPF
     MD5 check sum: 502b6b27b9c6270cab5dd1084b96fa6d
     Pseudo is Projector augmented-wave + core cor, Zval =  3.0
     Generated using &quot;atomic&quot; code by A. Dal Corso  v.6.3
     Shape of augmentation charge: PSQ
     Using radial grid of 1135 points,  6 beta functions with: 
                l(1) =   0
                l(2) =   0
                l(3) =   1
                l(4) =   1
                l(5) =   2
                l(6) =   2
     Q(r) pseudized with 0 coefficients 


     PseudoPot. # 2 for O  read from file:
     /home/mainadmin/research/danu/pseudo/O.pbe-n-kjpaw_psl.1.0.0.UPF
     MD5 check sum: e99d9cef9b487d1ca56f5b95ecd0fd7a
     Pseudo is Projector augmented-wave + core cor, Zval =  6.0
     Generated using &quot;atomic&quot; code by A. Dal Corso  v.6.3
     Shape of augmentation charge: PSQ
     Using radial grid of 1095 points,  4 beta functions with: 
                l(1) =   0
                l(2) =   0
                l(3) =   1
                l(4) =   1
     Q(r) pseudized with 0 coefficients 


     atomic species   valence    mass     pseudopotential
        Al             3.00    26.98100     Al( 1.00)
        O              6.00    15.99900     O ( 1.00)

      2 Sym. Ops. (no inversion) found



   Cartesian axes

     site n.     atom                  positions (alat units)
         1           O   tau(   1) = (   1.1543123   0.0000000   0.0000000  )
         2           Al  tau(   2) = (   0.5771561   0.0000000   0.1407984  )
         3           Al  tau(   3) = (   0.5771561   0.0000000   0.9489569  )
         4           O   tau(   4) = (   1.1543123   0.0000000   1.0899025  )
         5           O   tau(   5) = (   0.5771561   0.0000000   1.6003698  )
         6           Al  tau(   6) = (   1.1543123   0.0000000   1.7415418  )
         7           Al  tau(   7) = (   1.1543123   0.0000000   2.5493344  )
         8           O   tau(   8) = (   0.5771561   0.0000000   2.6902707  )

     number of k points=   140

     Number of k-points >= 100: set verbosity='high' to print them.

     Dense  grid:    40097 G-vectors     FFT dimensions: (  32,  32, 100)

     Estimated max dynamical RAM per process >      93.00 MB

     Estimated total dynamical RAM >     930.00 MB

     Check: negative core charge=   -0.000006

     Initial potential from superposition of free atoms

     starting charge      35.9908, renormalised to      36.0000
     Starting wfcs are   32 randomized atomic wfcs +   38 random wfcs
     Checking if some PAW data can be deallocated... 

     total cpu time spent up to now is        7.1 secs

     Self-consistent Calculation

     iteration #  1     ecut=    60.00 Ry     beta= 0.50
     Davidson diagonalization with overlap
     ethr =  1.00E-02,  avg # of iterations =  8.1

     total cpu time spent up to now is       60.3 secs

     total energy              =    -324.83460109 Ry
     estimated scf accuracy    <       1.63708905 Ry

     iteration #  2     ecut=    60.00 Ry     beta= 0.50
     Davidson diagonalization with overlap
     ethr =  4.55E-03,  avg # of iterations =  1.0

     total cpu time spent up to now is       78.5 secs

     total energy              =    -325.24489671 Ry
     estimated scf accuracy    <       0.47062322 Ry

     iteration #  3     ecut=    60.00 Ry     beta= 0.50
     Davidson diagonalization with overlap
     ethr =  1.31E-03,  avg # of iterations =  1.4

     total cpu time spent up to now is       97.1 secs

     total energy              =    -325.35272420 Ry
     estimated scf accuracy    <       0.01953741 Ry

     iteration #  4     ecut=    60.00 Ry     beta= 0.50
     Davidson diagonalization with overlap
     ethr =  5.43E-05,  avg # of iterations =  7.6

     total cpu time spent up to now is      128.3 secs

     total energy              =    -325.36541098 Ry
     estimated scf accuracy    <       0.00355809 Ry

     iteration #  5     ecut=    60.00 Ry     beta= 0.50
     Davidson diagonalization with overlap
     ethr =  9.88E-06,  avg # of iterations =  2.1

     total cpu time spent up to now is      149.0 secs

     total energy              =    -325.36594867 Ry
     estimated scf accuracy    <       0.00032711 Ry

     iteration #  6     ecut=    60.00 Ry     beta= 0.50
     Davidson diagonalization with overlap
     c_bands:  1 eigenvalues not converged
     ethr =  9.09E-07,  avg # of iterations =  3.3

     total cpu time spent up to now is      170.8 secs

     total energy              =    -325.36605767 Ry
     estimated scf accuracy    <       0.00006685 Ry

     iteration #  7     ecut=    60.00 Ry     beta= 0.50
     Davidson diagonalization with overlap
     ethr =  1.86E-07,  avg # of iterations =  2.1

     total cpu time spent up to now is      191.6 secs

     total energy              =    -325.36607563 Ry
     estimated scf accuracy    <       0.00001523 Ry

     iteration #  8     ecut=    60.00 Ry     beta= 0.50
     Davidson diagonalization with overlap
     ethr =  4.23E-08,  avg # of iterations =  3.4

     total cpu time spent up to now is      213.9 secs

     total energy              =    -325.36608210 Ry
     estimated scf accuracy    <       0.00000085 Ry

     iteration #  9     ecut=    60.00 Ry     beta= 0.50
     Davidson diagonalization with overlap
     ethr =  2.36E-09,  avg # of iterations =  4.1

     total cpu time spent up to now is      239.2 secs

     total energy              =    -325.36608275 Ry
     estimated scf accuracy    <       0.00000085 Ry

     iteration # 10     ecut=    60.00 Ry     beta= 0.50
     Davidson diagonalization with overlap
     ethr =  2.36E-09,  avg # of iterations =  1.0

     total cpu time spent up to now is      257.3 secs

     total energy              =    -325.36608277 Ry
     estimated scf accuracy    <       0.00000010 Ry

     iteration # 11     ecut=    60.00 Ry     beta= 0.50
     Davidson diagonalization with overlap
     ethr =  2.85E-10,  avg # of iterations =  2.0

     total cpu time spent up to now is      275.4 secs

     End of self-consistent calculation

     Number of k-points >= 100: set verbosity='high' to print the bands.

     highest occupied, lowest unoccupied level (ev):     7.8413    8.7965

!    total energy              =    -325.36608279 Ry
     total all-electron energy =     -2545.324764 Ry
     estimated scf accuracy    <          1.0E-09 Ry

     The total energy is the sum of the following terms:
     one-electron contribution =     -60.10672390 Ry
     hartree contribution      =      53.34118844 Ry
     xc contribution           =     -40.74058740 Ry
     ewald contribution        =    -100.86787438 Ry
     one-center paw contrib.   =    -176.99208555 Ry

     convergence has been achieved in  11 iterations

     Writing all to output data dir ./work/Al2O2.save/
 
     init_run     :      5.30s CPU      6.90s WALL (       1 calls)
     electrons    :    216.67s CPU    268.33s WALL (       1 calls)

     Called by init_run:
     wfcinit      :      5.05s CPU      6.59s WALL (       1 calls)
     potinit      :      0.11s CPU      0.14s WALL (       1 calls)
     hinit0       :      0.10s CPU      0.13s WALL (       1 calls)

     Called by electrons:
     c_bands      :    193.81s CPU    236.94s WALL (      11 calls)
     sum_band     :     21.81s CPU     29.94s WALL (      11 calls)
     v_of_rho     :      0.05s CPU      0.06s WALL (      12 calls)
     newd         :      0.22s CPU      0.23s WALL (      12 calls)
     PAW_pot      :      0.86s CPU      1.28s WALL (      12 calls)
     mix_rho      :      0.01s CPU      0.02s WALL (      11 calls)

     Called by c_bands:
     init_us_2    :      1.26s CPU      1.36s WALL (    3220 calls)
     init_us_2:cp :      1.25s CPU      1.35s WALL (    3220 calls)
     cegterg      :    187.46s CPU    230.44s WALL (    1540 calls)

     Called by *egterg:
     cdiaghg      :     35.46s CPU     36.43s WALL (    6591 calls)
     h_psi        :    111.91s CPU    152.73s WALL (    6731 calls)
     s_psi        :      6.77s CPU      7.12s WALL (    6731 calls)
     g_psi        :      0.24s CPU      0.25s WALL (    5051 calls)

     Called by h_psi:
     h_psi:calbec :      7.80s CPU     10.07s WALL (    6731 calls)
     vloc_psi     :     94.20s CPU    131.71s WALL (    6731 calls)
     add_vuspsi   :      8.82s CPU      9.83s WALL (    6731 calls)

     General routines
     calbec       :     10.06s CPU     12.98s WALL (    8271 calls)
     fft          :      0.04s CPU      0.04s WALL (     132 calls)
     ffts         :      0.00s CPU      0.00s WALL (      11 calls)
     fftw         :    107.41s CPU    150.36s WALL (  665990 calls)
 
     Parallel routines
 
     PWSCF        :   3m43.01s CPU   4m37.86s WALL

 
   This run was terminated on:   4:56:55  25Jun2023            

=------------------------------------------------------------------------------=
   JOB DONE.
=------------------------------------------------------------------------------=
