
     Program PWSCF v.7.1 starts on 13Jun2023 at  9: 0:21 

     This program is part of the open-source Quantum ESPRESSO suite
     for quantum simulation of materials; please cite
         "P. Giannozzi et al., J. Phys.:Condens. Matter 21 395502 (2009);
         "P. Giannozzi et al., J. Phys.:Condens. Matter 29 465901 (2017);
         "P. Giannozzi et al., J. Chem. Phys. 152 154105 (2020);
          URL http://www.quantum-espresso.org", 
     in publications or presentations arising from this work. More details at
     http://www.quantum-espresso.org/quote

     Parallel version (MPI), running on    18 processors

     MPI processes distributed on     1 nodes
     79414 MiB available memory on the printing compute node when the environment starts
 
     Waiting for input...
     Reading input from standard input

     Current dimensions of program PWSCF are:
     Max number of different atomic species (ntypx) = 10
     Max number of k-points (npk) =  40000
     Max angular momentum in pseudopotentials (lmaxx) =  4
     Message from routine volume:
     axis vectors are left-handed

     Atomic positions and unit cell read from directory:
     ./work/Al2SO.save/
     Atomic positions from file used, from input discarded
 
     Message from routine volume:
     axis vectors are left-handed
     file Al.pbe-n-kjpaw_psl.1.0.0.UPF: wavefunction(s)  3S 3P renormalized
     file O.pbe-n-kjpaw_psl.1.0.0.UPF: wavefunction(s)  2S 2P renormalized
     file S.pbe-n-kjpaw_psl.1.0.0.UPF: wavefunction(s)  3S 3P renormalized

     IMPORTANT: XC functional enforced from input :
     Exchange-correlation= VDW-DF2-B86R
                           (   1   4  26   0   2   0   0)
     Any further DFT definition will be discarded
     Please, verify this is what you really want

 
     R & G space division:  proc/nbgrp/npool/nimage =      18
     Subspace diagonalization in iterative solution of the eigenvalue problem:
     a serial algorithm will be used

 
     Parallelization info
     --------------------
     sticks:   dense  smooth     PW     G-vecs:    dense   smooth      PW
     Min          36      36     11                 2944     2944     523
     Max          37      37     12                 2950     2950     542
     Sum         649     649    199                53045    53045    9497
 
     Using Slab Decomposition
 


     bravais-lattice index     =            0
     lattice parameter (alat)  =       6.2033  a.u.
     unit-cell volume          =     843.0652 (a.u.)^3
     number of atoms/cell      =            8
     number of atomic types    =            3
     number of electrons       =        36.00
     number of Kohn-Sham states=           25
     kinetic-energy cutoff     =      60.0000  Ry
     charge density cutoff     =     240.0000  Ry
     Exchange-correlation= VDW-DF2-B86R
                           (   1   4  26   0   2   0   0)

     celldm(1)=   6.203328  celldm(2)=   0.000000  celldm(3)=   0.000000
     celldm(4)=   0.000000  celldm(5)=   0.000000  celldm(6)=   0.000000

     crystal axes: (cart. coord. in units of alat)
               a(1) = (   0.866041   0.499973   0.000003 )  
               a(2) = (   0.866041  -0.499973   0.000003 )  
               a(3) = (   0.000010   0.000000   4.078231 )  

     reciprocal axes: (cart. coord. in units 2 pi/alat)
               b(1) = (  0.577340  1.000053 -0.000001 )  
               b(2) = (  0.577340 -1.000053 -0.000001 )  
               b(3) = ( -0.000001  0.000000  0.245204 )  


     PseudoPot. # 1 for Al read from file:
     /home/mainadmin/research/danu/pseudo/Al.pbe-n-kjpaw_psl.1.0.0.UPF
     MD5 check sum: 502b6b27b9c6270cab5dd1084b96fa6d
     Pseudo is Projector augmented-wave + core cor, Zval =  3.0
     Generated using &quot;atomic&quot; code by A. Dal Corso  v.6.3
     Shape of augmentation charge: PSQ
     Using radial grid of 1135 points,  6 beta functions with: 
                l(1) =   0
                l(2) =   0
                l(3) =   1
                l(4) =   1
                l(5) =   2
                l(6) =   2
     Q(r) pseudized with 0 coefficients 


     PseudoPot. # 2 for O  read from file:
     /home/mainadmin/research/danu/pseudo/O.pbe-n-kjpaw_psl.1.0.0.UPF
     MD5 check sum: e99d9cef9b487d1ca56f5b95ecd0fd7a
     Pseudo is Projector augmented-wave + core cor, Zval =  6.0
     Generated using &quot;atomic&quot; code by A. Dal Corso  v.6.3
     Shape of augmentation charge: PSQ
     Using radial grid of 1095 points,  4 beta functions with: 
                l(1) =   0
                l(2) =   0
                l(3) =   1
                l(4) =   1
     Q(r) pseudized with 0 coefficients 


     PseudoPot. # 3 for S  read from file:
     /home/mainadmin/research/danu/pseudo/S.pbe-n-kjpaw_psl.1.0.0.UPF
     MD5 check sum: fb45dfebcf3e72a4e1bd4a866ec2e262
     Pseudo is Projector augmented-wave + core cor, Zval =  6.0
     Generated using &quot;atomic&quot; code by A. Dal Corso  v.6.3
     Shape of augmentation charge: PSQ
     Using radial grid of 1151 points,  6 beta functions with: 
                l(1) =   0
                l(2) =   0
                l(3) =   1
                l(4) =   1
                l(5) =   2
                l(6) =   2
     Q(r) pseudized with 0 coefficients 


     atomic species   valence    mass     pseudopotential
        Al             3.00    26.98100     Al( 1.00)
        O              6.00    15.99900     O ( 1.00)
        S              6.00    32.06500     S ( 1.00)

     No symmetry found


                                    s                        frac. trans.

      isym =  1     identity                                     

 cryst.   s( 1) = (     1          0          0      )
                  (     0          1          0      )
                  (     0          0          1      )

 cart.    s( 1) = (  1.0000000  0.0000000 -0.0000000 )
                  (  0.0000000  1.0000000  0.0000000 )
                  (  0.0000000  0.0000000  1.0000000 )


   Cartesian axes

     site n.     atom                  positions (alat units)
         1           O   tau(   1) = (   1.1547210   0.0000000   0.0000036  )
         2           Al  tau(   2) = (   0.5773605   0.0000000   0.0888171  )
         3           Al  tau(   3) = (   0.5773632   0.0000000   0.8930581  )
         4           S   tau(   4) = (   1.1547248   0.0000000   1.2775636  )
         5           O   tau(   5) = (   0.5773646   0.0000000   2.0391660  )
         6           Al  tau(   6) = (   1.1547263   0.0000000   2.1279808  )
         7           Al  tau(   7) = (   1.1547286   0.0000000   2.9323458  )
         8           S   tau(   8) = (   0.5773686   0.0000000   3.3165754  )

   Crystallographic axes

     site n.     atom                  positions (cryst. coord.)
         1           O   tau(   1) = (  0.6666667  0.6666667 -0.0000000  )
         2           Al  tau(   2) = (  0.3333332  0.3333332  0.0217779  )
         3           Al  tau(   3) = (  0.3333336  0.3333336  0.2189813  )
         4           S   tau(   4) = (  0.6666671  0.6666671  0.3132633  )
         5           O   tau(   5) = (  0.3333329  0.3333329  0.5000120  )
         6           Al  tau(   6) = (  0.6666668  0.6666668  0.5217893  )
         7           Al  tau(   7) = (  0.6666669  0.6666669  0.7190231  )
         8           S   tau(   8) = (  0.3333334  0.3333334  0.8132383  )

     number of k points=  4058 (tetrahedron method)
                       cart. coord. in units 2pi/alat
        k(    1) = (   0.0000000   0.0000000   0.0000000), wk =   0.0002465
        k(    2) = (  -0.0000003   0.0000000   0.0817348), wk =   0.0004931
        k(    3) = (   0.0111027  -0.0192318  -0.0000000), wk =   0.0004931
        k(    4) = (   0.0111024  -0.0192318   0.0817348), wk =   0.0004931
        k(    5) = (   0.0111030  -0.0192318  -0.0817348), wk =   0.0004931
        k(    6) = (   0.0222054  -0.0384636  -0.0000001), wk =   0.0004931
        k(    7) = (   0.0222051  -0.0384636   0.0817347), wk =   0.0004931
        k(    8) = (   0.0222056  -0.0384636  -0.0817348), wk =   0.0004931
        k(    9) = (   0.0333081  -0.0576954  -0.0000001), wk =   0.0004931
        k(   10) = (   0.0333078  -0.0576954   0.0817347), wk =   0.0004931
        k(   11) = (   0.0333083  -0.0576954  -0.0817349), wk =   0.0004931
        k(   12) = (   0.0444108  -0.0769272  -0.0000001), wk =   0.0004931
        k(   13) = (   0.0444105  -0.0769272   0.0817347), wk =   0.0004931
        k(   14) = (   0.0444110  -0.0769272  -0.0817349), wk =   0.0004931
        k(   15) = (   0.0555135  -0.0961590  -0.0000001), wk =   0.0004931
        k(   16) = (   0.0555132  -0.0961590   0.0817347), wk =   0.0004931
        k(   17) = (   0.0555137  -0.0961590  -0.0817349), wk =   0.0004931
        k(   18) = (   0.0666162  -0.1153908  -0.0000002), wk =   0.0004931
        k(   19) = (   0.0666159  -0.1153908   0.0817346), wk =   0.0004931
        k(   20) = (   0.0666164  -0.1153908  -0.0817350), wk =   0.0004931
        k(   21) = (   0.0777189  -0.1346225  -0.0000002), wk =   0.0004931
        k(   22) = (   0.0777186  -0.1346225   0.0817346), wk =   0.0004931
        k(   23) = (   0.0777191  -0.1346225  -0.0817350), wk =   0.0004931
        k(   24) = (   0.0888215  -0.1538543  -0.0000002), wk =   0.0004931
        k(   25) = (   0.0888213  -0.1538543   0.0817346), wk =   0.0004931
        k(   26) = (   0.0888218  -0.1538543  -0.0817350), wk =   0.0004931
        k(   27) = (   0.0999242  -0.1730861  -0.0000002), wk =   0.0004931
        k(   28) = (   0.0999240  -0.1730861   0.0817346), wk =   0.0004931
        k(   29) = (   0.0999245  -0.1730861  -0.0817350), wk =   0.0004931
        k(   30) = (   0.1110269  -0.1923179  -0.0000003), wk =   0.0004931
        k(   31) = (   0.1110267  -0.1923179   0.0817345), wk =   0.0004931
        k(   32) = (   0.1110272  -0.1923179  -0.0817351), wk =   0.0004931
        k(   33) = (   0.1221296  -0.2115497  -0.0000003), wk =   0.0004931
        k(   34) = (   0.1221294  -0.2115497   0.0817345), wk =   0.0004931
        k(   35) = (   0.1221299  -0.2115497  -0.0817351), wk =   0.0004931
        k(   36) = (   0.1332323  -0.2307815  -0.0000003), wk =   0.0004931
        k(   37) = (   0.1332321  -0.2307815   0.0817345), wk =   0.0004931
        k(   38) = (   0.1332326  -0.2307815  -0.0817351), wk =   0.0004931
        k(   39) = (   0.1443350  -0.2500133  -0.0000003), wk =   0.0004931
        k(   40) = (   0.1443347  -0.2500133   0.0817344), wk =   0.0004931
        k(   41) = (   0.1443353  -0.2500133  -0.0817351), wk =   0.0004931
        k(   42) = (   0.1554377  -0.2692451  -0.0000004), wk =   0.0004931
        k(   43) = (   0.1554374  -0.2692451   0.0817344), wk =   0.0004931
        k(   44) = (   0.1554380  -0.2692451  -0.0817352), wk =   0.0004931
        k(   45) = (   0.1665404  -0.2884769  -0.0000004), wk =   0.0004931
        k(   46) = (   0.1665401  -0.2884769   0.0817344), wk =   0.0004931
        k(   47) = (   0.1665407  -0.2884769  -0.0817352), wk =   0.0004931
        k(   48) = (   0.1776431  -0.3077087  -0.0000004), wk =   0.0004931
        k(   49) = (   0.1776428  -0.3077087   0.0817344), wk =   0.0004931
        k(   50) = (   0.1776433  -0.3077087  -0.0817352), wk =   0.0004931
        k(   51) = (   0.1887458  -0.3269405  -0.0000005), wk =   0.0004931
        k(   52) = (   0.1887455  -0.3269405   0.0817343), wk =   0.0004931
        k(   53) = (   0.1887460  -0.3269405  -0.0817352), wk =   0.0004931
        k(   54) = (   0.1998485  -0.3461723  -0.0000005), wk =   0.0004931
        k(   55) = (   0.1998482  -0.3461723   0.0817343), wk =   0.0004931
        k(   56) = (   0.1998487  -0.3461723  -0.0817353), wk =   0.0004931
        k(   57) = (   0.2109512  -0.3654041  -0.0000005), wk =   0.0004931
        k(   58) = (   0.2109509  -0.3654041   0.0817343), wk =   0.0004931
        k(   59) = (   0.2109514  -0.3654041  -0.0817353), wk =   0.0004931
        k(   60) = (   0.2220539  -0.3846359  -0.0000005), wk =   0.0004931
        k(   61) = (   0.2220536  -0.3846359   0.0817343), wk =   0.0004931
        k(   62) = (   0.2220541  -0.3846359  -0.0817353), wk =   0.0004931
        k(   63) = (   0.2331566  -0.4038676  -0.0000006), wk =   0.0004931
        k(   64) = (   0.2331563  -0.4038676   0.0817342), wk =   0.0004931
        k(   65) = (   0.2331568  -0.4038676  -0.0817354), wk =   0.0004931
        k(   66) = (   0.2442592  -0.4230994  -0.0000006), wk =   0.0004931
        k(   67) = (   0.2442590  -0.4230994   0.0817342), wk =   0.0004931
        k(   68) = (   0.2442595  -0.4230994  -0.0817354), wk =   0.0004931
        k(   69) = (   0.2553619  -0.4423312  -0.0000006), wk =   0.0004931
        k(   70) = (   0.2553617  -0.4423312   0.0817342), wk =   0.0004931
        k(   71) = (   0.2553622  -0.4423312  -0.0817354), wk =   0.0004931
        k(   72) = (   0.2664646  -0.4615630  -0.0000006), wk =   0.0004931
        k(   73) = (   0.2664644  -0.4615630   0.0817341), wk =   0.0004931
        k(   74) = (   0.2664649  -0.4615630  -0.0817354), wk =   0.0004931
        k(   75) = (   0.2775673  -0.4807948  -0.0000007), wk =   0.0004931
        k(   76) = (   0.2775671  -0.4807948   0.0817341), wk =   0.0004931
        k(   77) = (   0.2775676  -0.4807948  -0.0817355), wk =   0.0004931
        k(   78) = (  -0.2886700   0.5000266   0.0000007), wk =   0.0002465
        k(   79) = (  -0.2886703   0.5000266   0.0817355), wk =   0.0004931
        k(   80) = (   0.0111027   0.0192318  -0.0000000), wk =   0.0004931
        k(   81) = (   0.0111024   0.0192318   0.0817348), wk =   0.0004931
        k(   82) = (   0.0111030   0.0192318  -0.0817348), wk =   0.0004931
        k(   83) = (   0.0222054   0.0000000  -0.0000001), wk =   0.0004931
        k(   84) = (   0.0222051   0.0000000   0.0817347), wk =   0.0004931
        k(   85) = (   0.0222056   0.0000000  -0.0817348), wk =   0.0004931
        k(   86) = (   0.0333081  -0.0192318  -0.0000001), wk =   0.0004931
        k(   87) = (   0.0333078  -0.0192318   0.0817347), wk =   0.0004931
        k(   88) = (   0.0333083  -0.0192318  -0.0817349), wk =   0.0004931
        k(   89) = (   0.0444108  -0.0384636  -0.0000001), wk =   0.0004931
        k(   90) = (   0.0444105  -0.0384636   0.0817347), wk =   0.0004931
        k(   91) = (   0.0444110  -0.0384636  -0.0817349), wk =   0.0004931
        k(   92) = (   0.0555135  -0.0576954  -0.0000001), wk =   0.0004931
        k(   93) = (   0.0555132  -0.0576954   0.0817347), wk =   0.0004931
        k(   94) = (   0.0555137  -0.0576954  -0.0817349), wk =   0.0004931
        k(   95) = (   0.0666162  -0.0769272  -0.0000002), wk =   0.0004931
        k(   96) = (   0.0666159  -0.0769272   0.0817346), wk =   0.0004931
        k(   97) = (   0.0666164  -0.0769272  -0.0817350), wk =   0.0004931
        k(   98) = (   0.0777189  -0.0961590  -0.0000002), wk =   0.0004931
        k(   99) = (   0.0777186  -0.0961590   0.0817346), wk =   0.0004931
        k(  100) = (   0.0777191  -0.0961590  -0.0817350), wk =   0.0004931
        k(  101) = (   0.0888215  -0.1153908  -0.0000002), wk =   0.0004931
        k(  102) = (   0.0888213  -0.1153908   0.0817346), wk =   0.0004931
        k(  103) = (   0.0888218  -0.1153908  -0.0817350), wk =   0.0004931
        k(  104) = (   0.0999242  -0.1346225  -0.0000002), wk =   0.0004931
        k(  105) = (   0.0999240  -0.1346225   0.0817346), wk =   0.0004931
        k(  106) = (   0.0999245  -0.1346225  -0.0817350), wk =   0.0004931
        k(  107) = (   0.1110269  -0.1538543  -0.0000003), wk =   0.0004931
        k(  108) = (   0.1110267  -0.1538543   0.0817345), wk =   0.0004931
        k(  109) = (   0.1110272  -0.1538543  -0.0817351), wk =   0.0004931
        k(  110) = (   0.1221296  -0.1730861  -0.0000003), wk =   0.0004931
        k(  111) = (   0.1221294  -0.1730861   0.0817345), wk =   0.0004931
        k(  112) = (   0.1221299  -0.1730861  -0.0817351), wk =   0.0004931
        k(  113) = (   0.1332323  -0.1923179  -0.0000003), wk =   0.0004931
        k(  114) = (   0.1332321  -0.1923179   0.0817345), wk =   0.0004931
        k(  115) = (   0.1332326  -0.1923179  -0.0817351), wk =   0.0004931
        k(  116) = (   0.1443350  -0.2115497  -0.0000003), wk =   0.0004931
        k(  117) = (   0.1443347  -0.2115497   0.0817344), wk =   0.0004931
        k(  118) = (   0.1443353  -0.2115497  -0.0817351), wk =   0.0004931
        k(  119) = (   0.1554377  -0.2307815  -0.0000004), wk =   0.0004931
        k(  120) = (   0.1554374  -0.2307815   0.0817344), wk =   0.0004931
        k(  121) = (   0.1554380  -0.2307815  -0.0817352), wk =   0.0004931
        k(  122) = (   0.1665404  -0.2500133  -0.0000004), wk =   0.0004931
        k(  123) = (   0.1665401  -0.2500133   0.0817344), wk =   0.0004931
        k(  124) = (   0.1665407  -0.2500133  -0.0817352), wk =   0.0004931
        k(  125) = (   0.1776431  -0.2692451  -0.0000004), wk =   0.0004931
        k(  126) = (   0.1776428  -0.2692451   0.0817344), wk =   0.0004931
        k(  127) = (   0.1776433  -0.2692451  -0.0817352), wk =   0.0004931
        k(  128) = (   0.1887458  -0.2884769  -0.0000005), wk =   0.0004931
        k(  129) = (   0.1887455  -0.2884769   0.0817343), wk =   0.0004931
        k(  130) = (   0.1887460  -0.2884769  -0.0817352), wk =   0.0004931
        k(  131) = (   0.1998485  -0.3077087  -0.0000005), wk =   0.0004931
        k(  132) = (   0.1998482  -0.3077087   0.0817343), wk =   0.0004931
        k(  133) = (   0.1998487  -0.3077087  -0.0817353), wk =   0.0004931
        k(  134) = (   0.2109512  -0.3269405  -0.0000005), wk =   0.0004931
        k(  135) = (   0.2109509  -0.3269405   0.0817343), wk =   0.0004931
        k(  136) = (   0.2109514  -0.3269405  -0.0817353), wk =   0.0004931
        k(  137) = (   0.2220539  -0.3461723  -0.0000005), wk =   0.0004931
        k(  138) = (   0.2220536  -0.3461723   0.0817343), wk =   0.0004931
        k(  139) = (   0.2220541  -0.3461723  -0.0817353), wk =   0.0004931
        k(  140) = (   0.2331566  -0.3654041  -0.0000006), wk =   0.0004931
        k(  141) = (   0.2331563  -0.3654041   0.0817342), wk =   0.0004931
        k(  142) = (   0.2331568  -0.3654041  -0.0817354), wk =   0.0004931
        k(  143) = (   0.2442592  -0.3846359  -0.0000006), wk =   0.0004931
        k(  144) = (   0.2442590  -0.3846359   0.0817342), wk =   0.0004931
        k(  145) = (   0.2442595  -0.3846359  -0.0817354), wk =   0.0004931
        k(  146) = (   0.2553619  -0.4038676  -0.0000006), wk =   0.0004931
        k(  147) = (   0.2553617  -0.4038676   0.0817342), wk =   0.0004931
        k(  148) = (   0.2553622  -0.4038676  -0.0817354), wk =   0.0004931
        k(  149) = (   0.2664646  -0.4230994  -0.0000006), wk =   0.0004931
        k(  150) = (   0.2664644  -0.4230994   0.0817341), wk =   0.0004931
        k(  151) = (   0.2664649  -0.4230994  -0.0817354), wk =   0.0004931
        k(  152) = (   0.2775673  -0.4423312  -0.0000007), wk =   0.0004931
        k(  153) = (   0.2775671  -0.4423312   0.0817341), wk =   0.0004931
        k(  154) = (   0.2775676  -0.4423312  -0.0817355), wk =   0.0004931
        k(  155) = (   0.2886700  -0.4615630  -0.0000007), wk =   0.0004931
        k(  156) = (   0.2886698  -0.4615630   0.0817341), wk =   0.0004931
        k(  157) = (   0.2886703  -0.4615630  -0.0817355), wk =   0.0004931
        k(  158) = (  -0.2775673   0.5192584   0.0000007), wk =   0.0004931
        k(  159) = (  -0.2775676   0.5192584   0.0817355), wk =   0.0004931
        k(  160) = (  -0.2775671   0.5192584  -0.0817341), wk =   0.0004931
        k(  161) = (  -0.2664646   0.5000266   0.0000006), wk =   0.0004931
        k(  162) = (  -0.2664649   0.5000266   0.0817354), wk =   0.0004931
        k(  163) = (  -0.2664644   0.5000266  -0.0817341), wk =   0.0004931
        k(  164) = (  -0.2553619   0.4807948   0.0000006), wk =   0.0004931
        k(  165) = (  -0.2553622   0.4807948   0.0817354), wk =   0.0004931
        k(  166) = (  -0.2553617   0.4807948  -0.0817342), wk =   0.0004931
        k(  167) = (  -0.2442592   0.4615630   0.0000006), wk =   0.0004931
        k(  168) = (  -0.2442595   0.4615630   0.0817354), wk =   0.0004931
        k(  169) = (  -0.2442590   0.4615630  -0.0817342), wk =   0.0004931
        k(  170) = (  -0.2331566   0.4423312   0.0000006), wk =   0.0004931
        k(  171) = (  -0.2331568   0.4423312   0.0817354), wk =   0.0004931
        k(  172) = (  -0.2331563   0.4423312  -0.0817342), wk =   0.0004931
        k(  173) = (  -0.2220539   0.4230994   0.0000005), wk =   0.0004931
        k(  174) = (  -0.2220541   0.4230994   0.0817353), wk =   0.0004931
        k(  175) = (  -0.2220536   0.4230994  -0.0817343), wk =   0.0004931
        k(  176) = (  -0.2109512   0.4038676   0.0000005), wk =   0.0004931
        k(  177) = (  -0.2109514   0.4038676   0.0817353), wk =   0.0004931
        k(  178) = (  -0.2109509   0.4038676  -0.0817343), wk =   0.0004931
        k(  179) = (  -0.1998485   0.3846359   0.0000005), wk =   0.0004931
        k(  180) = (  -0.1998487   0.3846359   0.0817353), wk =   0.0004931
        k(  181) = (  -0.1998482   0.3846359  -0.0817343), wk =   0.0004931
        k(  182) = (  -0.1887458   0.3654041   0.0000005), wk =   0.0004931
        k(  183) = (  -0.1887460   0.3654041   0.0817352), wk =   0.0004931
        k(  184) = (  -0.1887455   0.3654041  -0.0817343), wk =   0.0004931
        k(  185) = (  -0.1776431   0.3461723   0.0000004), wk =   0.0004931
        k(  186) = (  -0.1776433   0.3461723   0.0817352), wk =   0.0004931
        k(  187) = (  -0.1776428   0.3461723  -0.0817344), wk =   0.0004931
        k(  188) = (  -0.1665404   0.3269405   0.0000004), wk =   0.0004931
        k(  189) = (  -0.1665407   0.3269405   0.0817352), wk =   0.0004931
        k(  190) = (  -0.1665401   0.3269405  -0.0817344), wk =   0.0004931
        k(  191) = (  -0.1554377   0.3077087   0.0000004), wk =   0.0004931
        k(  192) = (  -0.1554380   0.3077087   0.0817352), wk =   0.0004931
        k(  193) = (  -0.1554374   0.3077087  -0.0817344), wk =   0.0004931
        k(  194) = (  -0.1443350   0.2884769   0.0000003), wk =   0.0004931
        k(  195) = (  -0.1443353   0.2884769   0.0817351), wk =   0.0004931
        k(  196) = (  -0.1443347   0.2884769  -0.0817344), wk =   0.0004931
        k(  197) = (  -0.1332323   0.2692451   0.0000003), wk =   0.0004931
        k(  198) = (  -0.1332326   0.2692451   0.0817351), wk =   0.0004931
        k(  199) = (  -0.1332321   0.2692451  -0.0817345), wk =   0.0004931
        k(  200) = (  -0.1221296   0.2500133   0.0000003), wk =   0.0004931
        k(  201) = (  -0.1221299   0.2500133   0.0817351), wk =   0.0004931
        k(  202) = (  -0.1221294   0.2500133  -0.0817345), wk =   0.0004931
        k(  203) = (  -0.1110269   0.2307815   0.0000003), wk =   0.0004931
        k(  204) = (  -0.1110272   0.2307815   0.0817351), wk =   0.0004931
        k(  205) = (  -0.1110267   0.2307815  -0.0817345), wk =   0.0004931
        k(  206) = (  -0.0999242   0.2115497   0.0000002), wk =   0.0004931
        k(  207) = (  -0.0999245   0.2115497   0.0817350), wk =   0.0004931
        k(  208) = (  -0.0999240   0.2115497  -0.0817346), wk =   0.0004931
        k(  209) = (  -0.0888215   0.1923179   0.0000002), wk =   0.0004931
        k(  210) = (  -0.0888218   0.1923179   0.0817350), wk =   0.0004931
        k(  211) = (  -0.0888213   0.1923179  -0.0817346), wk =   0.0004931
        k(  212) = (  -0.0777189   0.1730861   0.0000002), wk =   0.0004931
        k(  213) = (  -0.0777191   0.1730861   0.0817350), wk =   0.0004931
        k(  214) = (  -0.0777186   0.1730861  -0.0817346), wk =   0.0004931
        k(  215) = (  -0.0666162   0.1538543   0.0000002), wk =   0.0004931
        k(  216) = (  -0.0666164   0.1538543   0.0817350), wk =   0.0004931
        k(  217) = (  -0.0666159   0.1538543  -0.0817346), wk =   0.0004931
        k(  218) = (  -0.0555135   0.1346225   0.0000001), wk =   0.0004931
        k(  219) = (  -0.0555137   0.1346225   0.0817349), wk =   0.0004931
        k(  220) = (  -0.0555132   0.1346225  -0.0817347), wk =   0.0004931
        k(  221) = (  -0.0444108   0.1153908   0.0000001), wk =   0.0004931
        k(  222) = (  -0.0444110   0.1153908   0.0817349), wk =   0.0004931
        k(  223) = (  -0.0444105   0.1153908  -0.0817347), wk =   0.0004931
        k(  224) = (  -0.0333081   0.0961590   0.0000001), wk =   0.0004931
        k(  225) = (  -0.0333083   0.0961590   0.0817349), wk =   0.0004931
        k(  226) = (  -0.0333078   0.0961590  -0.0817347), wk =   0.0004931
        k(  227) = (  -0.0222054   0.0769272   0.0000001), wk =   0.0004931
        k(  228) = (  -0.0222056   0.0769272   0.0817348), wk =   0.0004931
        k(  229) = (  -0.0222051   0.0769272  -0.0817347), wk =   0.0004931
        k(  230) = (  -0.0111027   0.0576954   0.0000000), wk =   0.0004931
        k(  231) = (  -0.0111030   0.0576954   0.0817348), wk =   0.0004931
        k(  232) = (  -0.0111024   0.0576954  -0.0817348), wk =   0.0004931
        k(  233) = (  -0.0000000   0.0384636   0.0000000), wk =   0.0004931
        k(  234) = (  -0.0000003   0.0384636   0.0817348), wk =   0.0004931
        k(  235) = (   0.0000003   0.0384636  -0.0817348), wk =   0.0004931
        k(  236) = (   0.0222054   0.0384636  -0.0000001), wk =   0.0004931
        k(  237) = (   0.0222051   0.0384636   0.0817347), wk =   0.0004931
        k(  238) = (   0.0222056   0.0384636  -0.0817348), wk =   0.0004931
        k(  239) = (   0.0333081   0.0192318  -0.0000001), wk =   0.0004931
        k(  240) = (   0.0333078   0.0192318   0.0817347), wk =   0.0004931
        k(  241) = (   0.0333083   0.0192318  -0.0817349), wk =   0.0004931
        k(  242) = (   0.0444108   0.0000000  -0.0000001), wk =   0.0004931
        k(  243) = (   0.0444105   0.0000000   0.0817347), wk =   0.0004931
        k(  244) = (   0.0444110   0.0000000  -0.0817349), wk =   0.0004931
        k(  245) = (   0.0555135  -0.0192318  -0.0000001), wk =   0.0004931
        k(  246) = (   0.0555132  -0.0192318   0.0817347), wk =   0.0004931
        k(  247) = (   0.0555137  -0.0192318  -0.0817349), wk =   0.0004931
        k(  248) = (   0.0666162  -0.0384636  -0.0000002), wk =   0.0004931
        k(  249) = (   0.0666159  -0.0384636   0.0817346), wk =   0.0004931
        k(  250) = (   0.0666164  -0.0384636  -0.0817350), wk =   0.0004931
        k(  251) = (   0.0777189  -0.0576954  -0.0000002), wk =   0.0004931
        k(  252) = (   0.0777186  -0.0576954   0.0817346), wk =   0.0004931
        k(  253) = (   0.0777191  -0.0576954  -0.0817350), wk =   0.0004931
        k(  254) = (   0.0888215  -0.0769272  -0.0000002), wk =   0.0004931
        k(  255) = (   0.0888213  -0.0769272   0.0817346), wk =   0.0004931
        k(  256) = (   0.0888218  -0.0769272  -0.0817350), wk =   0.0004931
        k(  257) = (   0.0999242  -0.0961590  -0.0000002), wk =   0.0004931
        k(  258) = (   0.0999240  -0.0961590   0.0817346), wk =   0.0004931
        k(  259) = (   0.0999245  -0.0961590  -0.0817350), wk =   0.0004931
        k(  260) = (   0.1110269  -0.1153908  -0.0000003), wk =   0.0004931
        k(  261) = (   0.1110267  -0.1153908   0.0817345), wk =   0.0004931
        k(  262) = (   0.1110272  -0.1153908  -0.0817351), wk =   0.0004931
        k(  263) = (   0.1221296  -0.1346225  -0.0000003), wk =   0.0004931
        k(  264) = (   0.1221294  -0.1346225   0.0817345), wk =   0.0004931
        k(  265) = (   0.1221299  -0.1346225  -0.0817351), wk =   0.0004931
        k(  266) = (   0.1332323  -0.1538543  -0.0000003), wk =   0.0004931
        k(  267) = (   0.1332321  -0.1538543   0.0817345), wk =   0.0004931
        k(  268) = (   0.1332326  -0.1538543  -0.0817351), wk =   0.0004931
        k(  269) = (   0.1443350  -0.1730861  -0.0000003), wk =   0.0004931
        k(  270) = (   0.1443347  -0.1730861   0.0817344), wk =   0.0004931
        k(  271) = (   0.1443353  -0.1730861  -0.0817351), wk =   0.0004931
        k(  272) = (   0.1554377  -0.1923179  -0.0000004), wk =   0.0004931
        k(  273) = (   0.1554374  -0.1923179   0.0817344), wk =   0.0004931
        k(  274) = (   0.1554380  -0.1923179  -0.0817352), wk =   0.0004931
        k(  275) = (   0.1665404  -0.2115497  -0.0000004), wk =   0.0004931
        k(  276) = (   0.1665401  -0.2115497   0.0817344), wk =   0.0004931
        k(  277) = (   0.1665407  -0.2115497  -0.0817352), wk =   0.0004931
        k(  278) = (   0.1776431  -0.2307815  -0.0000004), wk =   0.0004931
        k(  279) = (   0.1776428  -0.2307815   0.0817344), wk =   0.0004931
        k(  280) = (   0.1776433  -0.2307815  -0.0817352), wk =   0.0004931
        k(  281) = (   0.1887458  -0.2500133  -0.0000005), wk =   0.0004931
        k(  282) = (   0.1887455  -0.2500133   0.0817343), wk =   0.0004931
        k(  283) = (   0.1887460  -0.2500133  -0.0817352), wk =   0.0004931
        k(  284) = (   0.1998485  -0.2692451  -0.0000005), wk =   0.0004931
        k(  285) = (   0.1998482  -0.2692451   0.0817343), wk =   0.0004931
        k(  286) = (   0.1998487  -0.2692451  -0.0817353), wk =   0.0004931
        k(  287) = (   0.2109512  -0.2884769  -0.0000005), wk =   0.0004931
        k(  288) = (   0.2109509  -0.2884769   0.0817343), wk =   0.0004931
        k(  289) = (   0.2109514  -0.2884769  -0.0817353), wk =   0.0004931
        k(  290) = (   0.2220539  -0.3077087  -0.0000005), wk =   0.0004931
        k(  291) = (   0.2220536  -0.3077087   0.0817343), wk =   0.0004931
        k(  292) = (   0.2220541  -0.3077087  -0.0817353), wk =   0.0004931
        k(  293) = (   0.2331566  -0.3269405  -0.0000006), wk =   0.0004931
        k(  294) = (   0.2331563  -0.3269405   0.0817342), wk =   0.0004931
        k(  295) = (   0.2331568  -0.3269405  -0.0817354), wk =   0.0004931
        k(  296) = (   0.2442592  -0.3461723  -0.0000006), wk =   0.0004931
        k(  297) = (   0.2442590  -0.3461723   0.0817342), wk =   0.0004931
        k(  298) = (   0.2442595  -0.3461723  -0.0817354), wk =   0.0004931
        k(  299) = (   0.2553619  -0.3654041  -0.0000006), wk =   0.0004931
        k(  300) = (   0.2553617  -0.3654041   0.0817342), wk =   0.0004931
        k(  301) = (   0.2553622  -0.3654041  -0.0817354), wk =   0.0004931
        k(  302) = (   0.2664646  -0.3846359  -0.0000006), wk =   0.0004931
        k(  303) = (   0.2664644  -0.3846359   0.0817341), wk =   0.0004931
        k(  304) = (   0.2664649  -0.3846359  -0.0817354), wk =   0.0004931
        k(  305) = (   0.2775673  -0.4038676  -0.0000007), wk =   0.0004931
        k(  306) = (   0.2775671  -0.4038676   0.0817341), wk =   0.0004931
        k(  307) = (   0.2775676  -0.4038676  -0.0817355), wk =   0.0004931
        k(  308) = (   0.2886700  -0.4230994  -0.0000007), wk =   0.0004931
        k(  309) = (   0.2886698  -0.4230994   0.0817341), wk =   0.0004931
        k(  310) = (   0.2886703  -0.4230994  -0.0817355), wk =   0.0004931
        k(  311) = (   0.2997727  -0.4423312  -0.0000007), wk =   0.0004931
        k(  312) = (   0.2997724  -0.4423312   0.0817341), wk =   0.0004931
        k(  313) = (   0.2997730  -0.4423312  -0.0817355), wk =   0.0004931
        k(  314) = (  -0.2664646   0.5384902   0.0000006), wk =   0.0004931
        k(  315) = (  -0.2664649   0.5384902   0.0817354), wk =   0.0004931
        k(  316) = (  -0.2664644   0.5384902  -0.0817341), wk =   0.0004931
        k(  317) = (  -0.2553619   0.5192584   0.0000006), wk =   0.0004931
        k(  318) = (  -0.2553622   0.5192584   0.0817354), wk =   0.0004931
        k(  319) = (  -0.2553617   0.5192584  -0.0817342), wk =   0.0004931
        k(  320) = (  -0.2442592   0.5000266   0.0000006), wk =   0.0004931
        k(  321) = (  -0.2442595   0.5000266   0.0817354), wk =   0.0004931
        k(  322) = (  -0.2442590   0.5000266  -0.0817342), wk =   0.0004931
        k(  323) = (  -0.2331566   0.4807948   0.0000006), wk =   0.0004931
        k(  324) = (  -0.2331568   0.4807948   0.0817354), wk =   0.0004931
        k(  325) = (  -0.2331563   0.4807948  -0.0817342), wk =   0.0004931
        k(  326) = (  -0.2220539   0.4615630   0.0000005), wk =   0.0004931
        k(  327) = (  -0.2220541   0.4615630   0.0817353), wk =   0.0004931
        k(  328) = (  -0.2220536   0.4615630  -0.0817343), wk =   0.0004931
        k(  329) = (  -0.2109512   0.4423312   0.0000005), wk =   0.0004931
        k(  330) = (  -0.2109514   0.4423312   0.0817353), wk =   0.0004931
        k(  331) = (  -0.2109509   0.4423312  -0.0817343), wk =   0.0004931
        k(  332) = (  -0.1998485   0.4230994   0.0000005), wk =   0.0004931
        k(  333) = (  -0.1998487   0.4230994   0.0817353), wk =   0.0004931
        k(  334) = (  -0.1998482   0.4230994  -0.0817343), wk =   0.0004931
        k(  335) = (  -0.1887458   0.4038676   0.0000005), wk =   0.0004931
        k(  336) = (  -0.1887460   0.4038676   0.0817352), wk =   0.0004931
        k(  337) = (  -0.1887455   0.4038676  -0.0817343), wk =   0.0004931
        k(  338) = (  -0.1776431   0.3846359   0.0000004), wk =   0.0004931
        k(  339) = (  -0.1776433   0.3846359   0.0817352), wk =   0.0004931
        k(  340) = (  -0.1776428   0.3846359  -0.0817344), wk =   0.0004931
        k(  341) = (  -0.1665404   0.3654041   0.0000004), wk =   0.0004931
        k(  342) = (  -0.1665407   0.3654041   0.0817352), wk =   0.0004931
        k(  343) = (  -0.1665401   0.3654041  -0.0817344), wk =   0.0004931
        k(  344) = (  -0.1554377   0.3461723   0.0000004), wk =   0.0004931
        k(  345) = (  -0.1554380   0.3461723   0.0817352), wk =   0.0004931
        k(  346) = (  -0.1554374   0.3461723  -0.0817344), wk =   0.0004931
        k(  347) = (  -0.1443350   0.3269405   0.0000003), wk =   0.0004931
        k(  348) = (  -0.1443353   0.3269405   0.0817351), wk =   0.0004931
        k(  349) = (  -0.1443347   0.3269405  -0.0817344), wk =   0.0004931
        k(  350) = (  -0.1332323   0.3077087   0.0000003), wk =   0.0004931
        k(  351) = (  -0.1332326   0.3077087   0.0817351), wk =   0.0004931
        k(  352) = (  -0.1332321   0.3077087  -0.0817345), wk =   0.0004931
        k(  353) = (  -0.1221296   0.2884769   0.0000003), wk =   0.0004931
        k(  354) = (  -0.1221299   0.2884769   0.0817351), wk =   0.0004931
        k(  355) = (  -0.1221294   0.2884769  -0.0817345), wk =   0.0004931
        k(  356) = (  -0.1110269   0.2692451   0.0000003), wk =   0.0004931
        k(  357) = (  -0.1110272   0.2692451   0.0817351), wk =   0.0004931
        k(  358) = (  -0.1110267   0.2692451  -0.0817345), wk =   0.0004931
        k(  359) = (  -0.0999242   0.2500133   0.0000002), wk =   0.0004931
        k(  360) = (  -0.0999245   0.2500133   0.0817350), wk =   0.0004931
        k(  361) = (  -0.0999240   0.2500133  -0.0817346), wk =   0.0004931
        k(  362) = (  -0.0888215   0.2307815   0.0000002), wk =   0.0004931
        k(  363) = (  -0.0888218   0.2307815   0.0817350), wk =   0.0004931
        k(  364) = (  -0.0888213   0.2307815  -0.0817346), wk =   0.0004931
        k(  365) = (  -0.0777189   0.2115497   0.0000002), wk =   0.0004931
        k(  366) = (  -0.0777191   0.2115497   0.0817350), wk =   0.0004931
        k(  367) = (  -0.0777186   0.2115497  -0.0817346), wk =   0.0004931
        k(  368) = (  -0.0666162   0.1923179   0.0000002), wk =   0.0004931
        k(  369) = (  -0.0666164   0.1923179   0.0817350), wk =   0.0004931
        k(  370) = (  -0.0666159   0.1923179  -0.0817346), wk =   0.0004931
        k(  371) = (  -0.0555135   0.1730861   0.0000001), wk =   0.0004931
        k(  372) = (  -0.0555137   0.1730861   0.0817349), wk =   0.0004931
        k(  373) = (  -0.0555132   0.1730861  -0.0817347), wk =   0.0004931
        k(  374) = (  -0.0444108   0.1538543   0.0000001), wk =   0.0004931
        k(  375) = (  -0.0444110   0.1538543   0.0817349), wk =   0.0004931
        k(  376) = (  -0.0444105   0.1538543  -0.0817347), wk =   0.0004931
        k(  377) = (  -0.0333081   0.1346225   0.0000001), wk =   0.0004931
        k(  378) = (  -0.0333083   0.1346225   0.0817349), wk =   0.0004931
        k(  379) = (  -0.0333078   0.1346225  -0.0817347), wk =   0.0004931
        k(  380) = (  -0.0222054   0.1153908   0.0000001), wk =   0.0004931
        k(  381) = (  -0.0222056   0.1153908   0.0817348), wk =   0.0004931
        k(  382) = (  -0.0222051   0.1153908  -0.0817347), wk =   0.0004931
        k(  383) = (  -0.0111027   0.0961590   0.0000000), wk =   0.0004931
        k(  384) = (  -0.0111030   0.0961590   0.0817348), wk =   0.0004931
        k(  385) = (  -0.0111024   0.0961590  -0.0817348), wk =   0.0004931
        k(  386) = (   0.0000000   0.0769272  -0.0000000), wk =   0.0004931
        k(  387) = (  -0.0000003   0.0769272   0.0817348), wk =   0.0004931
        k(  388) = (   0.0000003   0.0769272  -0.0817348), wk =   0.0004931
        k(  389) = (   0.0111027   0.0576954  -0.0000000), wk =   0.0004931
        k(  390) = (   0.0111024   0.0576954   0.0817348), wk =   0.0004931
        k(  391) = (   0.0111030   0.0576954  -0.0817348), wk =   0.0004931
        k(  392) = (   0.0333081   0.0576954  -0.0000001), wk =   0.0004931
        k(  393) = (   0.0333078   0.0576954   0.0817347), wk =   0.0004931
        k(  394) = (   0.0333083   0.0576954  -0.0817349), wk =   0.0004931
        k(  395) = (   0.0444108   0.0384636  -0.0000001), wk =   0.0004931
        k(  396) = (   0.0444105   0.0384636   0.0817347), wk =   0.0004931
        k(  397) = (   0.0444110   0.0384636  -0.0817349), wk =   0.0004931
        k(  398) = (   0.0555135   0.0192318  -0.0000001), wk =   0.0004931
        k(  399) = (   0.0555132   0.0192318   0.0817347), wk =   0.0004931
        k(  400) = (   0.0555137   0.0192318  -0.0817349), wk =   0.0004931
        k(  401) = (   0.0666162   0.0000000  -0.0000002), wk =   0.0004931
        k(  402) = (   0.0666159   0.0000000   0.0817346), wk =   0.0004931
        k(  403) = (   0.0666164   0.0000000  -0.0817350), wk =   0.0004931
        k(  404) = (   0.0777189  -0.0192318  -0.0000002), wk =   0.0004931
        k(  405) = (   0.0777186  -0.0192318   0.0817346), wk =   0.0004931
        k(  406) = (   0.0777191  -0.0192318  -0.0817350), wk =   0.0004931
        k(  407) = (   0.0888215  -0.0384636  -0.0000002), wk =   0.0004931
        k(  408) = (   0.0888213  -0.0384636   0.0817346), wk =   0.0004931
        k(  409) = (   0.0888218  -0.0384636  -0.0817350), wk =   0.0004931
        k(  410) = (   0.0999242  -0.0576954  -0.0000002), wk =   0.0004931
        k(  411) = (   0.0999240  -0.0576954   0.0817346), wk =   0.0004931
        k(  412) = (   0.0999245  -0.0576954  -0.0817350), wk =   0.0004931
        k(  413) = (   0.1110269  -0.0769272  -0.0000003), wk =   0.0004931
        k(  414) = (   0.1110267  -0.0769272   0.0817345), wk =   0.0004931
        k(  415) = (   0.1110272  -0.0769272  -0.0817351), wk =   0.0004931
        k(  416) = (   0.1221296  -0.0961590  -0.0000003), wk =   0.0004931
        k(  417) = (   0.1221294  -0.0961590   0.0817345), wk =   0.0004931
        k(  418) = (   0.1221299  -0.0961590  -0.0817351), wk =   0.0004931
        k(  419) = (   0.1332323  -0.1153908  -0.0000003), wk =   0.0004931
        k(  420) = (   0.1332321  -0.1153908   0.0817345), wk =   0.0004931
        k(  421) = (   0.1332326  -0.1153908  -0.0817351), wk =   0.0004931
        k(  422) = (   0.1443350  -0.1346225  -0.0000003), wk =   0.0004931
        k(  423) = (   0.1443347  -0.1346225   0.0817344), wk =   0.0004931
        k(  424) = (   0.1443353  -0.1346225  -0.0817351), wk =   0.0004931
        k(  425) = (   0.1554377  -0.1538543  -0.0000004), wk =   0.0004931
        k(  426) = (   0.1554374  -0.1538543   0.0817344), wk =   0.0004931
        k(  427) = (   0.1554380  -0.1538543  -0.0817352), wk =   0.0004931
        k(  428) = (   0.1665404  -0.1730861  -0.0000004), wk =   0.0004931
        k(  429) = (   0.1665401  -0.1730861   0.0817344), wk =   0.0004931
        k(  430) = (   0.1665407  -0.1730861  -0.0817352), wk =   0.0004931
        k(  431) = (   0.1776431  -0.1923179  -0.0000004), wk =   0.0004931
        k(  432) = (   0.1776428  -0.1923179   0.0817344), wk =   0.0004931
        k(  433) = (   0.1776433  -0.1923179  -0.0817352), wk =   0.0004931
        k(  434) = (   0.1887458  -0.2115497  -0.0000005), wk =   0.0004931
        k(  435) = (   0.1887455  -0.2115497   0.0817343), wk =   0.0004931
        k(  436) = (   0.1887460  -0.2115497  -0.0817352), wk =   0.0004931
        k(  437) = (   0.1998485  -0.2307815  -0.0000005), wk =   0.0004931
        k(  438) = (   0.1998482  -0.2307815   0.0817343), wk =   0.0004931
        k(  439) = (   0.1998487  -0.2307815  -0.0817353), wk =   0.0004931
        k(  440) = (   0.2109512  -0.2500133  -0.0000005), wk =   0.0004931
        k(  441) = (   0.2109509  -0.2500133   0.0817343), wk =   0.0004931
        k(  442) = (   0.2109514  -0.2500133  -0.0817353), wk =   0.0004931
        k(  443) = (   0.2220539  -0.2692451  -0.0000005), wk =   0.0004931
        k(  444) = (   0.2220536  -0.2692451   0.0817343), wk =   0.0004931
        k(  445) = (   0.2220541  -0.2692451  -0.0817353), wk =   0.0004931
        k(  446) = (   0.2331566  -0.2884769  -0.0000006), wk =   0.0004931
        k(  447) = (   0.2331563  -0.2884769   0.0817342), wk =   0.0004931
        k(  448) = (   0.2331568  -0.2884769  -0.0817354), wk =   0.0004931
        k(  449) = (   0.2442592  -0.3077087  -0.0000006), wk =   0.0004931
        k(  450) = (   0.2442590  -0.3077087   0.0817342), wk =   0.0004931
        k(  451) = (   0.2442595  -0.3077087  -0.0817354), wk =   0.0004931
        k(  452) = (   0.2553619  -0.3269405  -0.0000006), wk =   0.0004931
        k(  453) = (   0.2553617  -0.3269405   0.0817342), wk =   0.0004931
        k(  454) = (   0.2553622  -0.3269405  -0.0817354), wk =   0.0004931
        k(  455) = (   0.2664646  -0.3461723  -0.0000006), wk =   0.0004931
        k(  456) = (   0.2664644  -0.3461723   0.0817341), wk =   0.0004931
        k(  457) = (   0.2664649  -0.3461723  -0.0817354), wk =   0.0004931
        k(  458) = (   0.2775673  -0.3654041  -0.0000007), wk =   0.0004931
        k(  459) = (   0.2775671  -0.3654041   0.0817341), wk =   0.0004931
        k(  460) = (   0.2775676  -0.3654041  -0.0817355), wk =   0.0004931
        k(  461) = (   0.2886700  -0.3846359  -0.0000007), wk =   0.0004931
        k(  462) = (   0.2886698  -0.3846359   0.0817341), wk =   0.0004931
        k(  463) = (   0.2886703  -0.3846359  -0.0817355), wk =   0.0004931
        k(  464) = (   0.2997727  -0.4038676  -0.0000007), wk =   0.0004931
        k(  465) = (   0.2997724  -0.4038676   0.0817341), wk =   0.0004931
        k(  466) = (   0.2997730  -0.4038676  -0.0817355), wk =   0.0004931
        k(  467) = (   0.3108754  -0.4230994  -0.0000007), wk =   0.0004931
        k(  468) = (   0.3108751  -0.4230994   0.0817340), wk =   0.0004931
        k(  469) = (   0.3108757  -0.4230994  -0.0817355), wk =   0.0004931
        k(  470) = (  -0.2553619   0.5577220   0.0000006), wk =   0.0004931
        k(  471) = (  -0.2553622   0.5577220   0.0817354), wk =   0.0004931
        k(  472) = (  -0.2553617   0.5577220  -0.0817342), wk =   0.0004931
        k(  473) = (  -0.2442592   0.5384902   0.0000006), wk =   0.0004931
        k(  474) = (  -0.2442595   0.5384902   0.0817354), wk =   0.0004931
        k(  475) = (  -0.2442590   0.5384902  -0.0817342), wk =   0.0004931
        k(  476) = (  -0.2331566   0.5192584   0.0000006), wk =   0.0004931
        k(  477) = (  -0.2331568   0.5192584   0.0817354), wk =   0.0004931
        k(  478) = (  -0.2331563   0.5192584  -0.0817342), wk =   0.0004931
        k(  479) = (  -0.2220539   0.5000266   0.0000005), wk =   0.0004931
        k(  480) = (  -0.2220541   0.5000266   0.0817353), wk =   0.0004931
        k(  481) = (  -0.2220536   0.5000266  -0.0817343), wk =   0.0004931
        k(  482) = (  -0.2109512   0.4807948   0.0000005), wk =   0.0004931
        k(  483) = (  -0.2109514   0.4807948   0.0817353), wk =   0.0004931
        k(  484) = (  -0.2109509   0.4807948  -0.0817343), wk =   0.0004931
        k(  485) = (  -0.1998485   0.4615630   0.0000005), wk =   0.0004931
        k(  486) = (  -0.1998487   0.4615630   0.0817353), wk =   0.0004931
        k(  487) = (  -0.1998482   0.4615630  -0.0817343), wk =   0.0004931
        k(  488) = (  -0.1887458   0.4423312   0.0000005), wk =   0.0004931
        k(  489) = (  -0.1887460   0.4423312   0.0817352), wk =   0.0004931
        k(  490) = (  -0.1887455   0.4423312  -0.0817343), wk =   0.0004931
        k(  491) = (  -0.1776431   0.4230994   0.0000004), wk =   0.0004931
        k(  492) = (  -0.1776433   0.4230994   0.0817352), wk =   0.0004931
        k(  493) = (  -0.1776428   0.4230994  -0.0817344), wk =   0.0004931
        k(  494) = (  -0.1665404   0.4038676   0.0000004), wk =   0.0004931
        k(  495) = (  -0.1665407   0.4038676   0.0817352), wk =   0.0004931
        k(  496) = (  -0.1665401   0.4038676  -0.0817344), wk =   0.0004931
        k(  497) = (  -0.1554377   0.3846359   0.0000004), wk =   0.0004931
        k(  498) = (  -0.1554380   0.3846359   0.0817352), wk =   0.0004931
        k(  499) = (  -0.1554374   0.3846359  -0.0817344), wk =   0.0004931
        k(  500) = (  -0.1443350   0.3654041   0.0000003), wk =   0.0004931
        k(  501) = (  -0.1443353   0.3654041   0.0817351), wk =   0.0004931
        k(  502) = (  -0.1443347   0.3654041  -0.0817344), wk =   0.0004931
        k(  503) = (  -0.1332323   0.3461723   0.0000003), wk =   0.0004931
        k(  504) = (  -0.1332326   0.3461723   0.0817351), wk =   0.0004931
        k(  505) = (  -0.1332321   0.3461723  -0.0817345), wk =   0.0004931
        k(  506) = (  -0.1221296   0.3269405   0.0000003), wk =   0.0004931
        k(  507) = (  -0.1221299   0.3269405   0.0817351), wk =   0.0004931
        k(  508) = (  -0.1221294   0.3269405  -0.0817345), wk =   0.0004931
        k(  509) = (  -0.1110269   0.3077087   0.0000003), wk =   0.0004931
        k(  510) = (  -0.1110272   0.3077087   0.0817351), wk =   0.0004931
        k(  511) = (  -0.1110267   0.3077087  -0.0817345), wk =   0.0004931
        k(  512) = (  -0.0999242   0.2884769   0.0000002), wk =   0.0004931
        k(  513) = (  -0.0999245   0.2884769   0.0817350), wk =   0.0004931
        k(  514) = (  -0.0999240   0.2884769  -0.0817346), wk =   0.0004931
        k(  515) = (  -0.0888215   0.2692451   0.0000002), wk =   0.0004931
        k(  516) = (  -0.0888218   0.2692451   0.0817350), wk =   0.0004931
        k(  517) = (  -0.0888213   0.2692451  -0.0817346), wk =   0.0004931
        k(  518) = (  -0.0777189   0.2500133   0.0000002), wk =   0.0004931
        k(  519) = (  -0.0777191   0.2500133   0.0817350), wk =   0.0004931
        k(  520) = (  -0.0777186   0.2500133  -0.0817346), wk =   0.0004931
        k(  521) = (  -0.0666162   0.2307815   0.0000002), wk =   0.0004931
        k(  522) = (  -0.0666164   0.2307815   0.0817350), wk =   0.0004931
        k(  523) = (  -0.0666159   0.2307815  -0.0817346), wk =   0.0004931
        k(  524) = (  -0.0555135   0.2115497   0.0000001), wk =   0.0004931
        k(  525) = (  -0.0555137   0.2115497   0.0817349), wk =   0.0004931
        k(  526) = (  -0.0555132   0.2115497  -0.0817347), wk =   0.0004931
        k(  527) = (  -0.0444108   0.1923179   0.0000001), wk =   0.0004931
        k(  528) = (  -0.0444110   0.1923179   0.0817349), wk =   0.0004931
        k(  529) = (  -0.0444105   0.1923179  -0.0817347), wk =   0.0004931
        k(  530) = (  -0.0333081   0.1730861   0.0000001), wk =   0.0004931
        k(  531) = (  -0.0333083   0.1730861   0.0817349), wk =   0.0004931
        k(  532) = (  -0.0333078   0.1730861  -0.0817347), wk =   0.0004931
        k(  533) = (  -0.0222054   0.1538543   0.0000001), wk =   0.0004931
        k(  534) = (  -0.0222056   0.1538543   0.0817348), wk =   0.0004931
        k(  535) = (  -0.0222051   0.1538543  -0.0817347), wk =   0.0004931
        k(  536) = (  -0.0111027   0.1346225   0.0000000), wk =   0.0004931
        k(  537) = (  -0.0111030   0.1346225   0.0817348), wk =   0.0004931
        k(  538) = (  -0.0111024   0.1346225  -0.0817348), wk =   0.0004931
        k(  539) = (  -0.0000000   0.1153908   0.0000000), wk =   0.0004931
        k(  540) = (  -0.0000003   0.1153908   0.0817348), wk =   0.0004931
        k(  541) = (   0.0000003   0.1153908  -0.0817348), wk =   0.0004931
        k(  542) = (   0.0111027   0.0961590  -0.0000000), wk =   0.0004931
        k(  543) = (   0.0111024   0.0961590   0.0817348), wk =   0.0004931
        k(  544) = (   0.0111030   0.0961590  -0.0817348), wk =   0.0004931
        k(  545) = (   0.0222054   0.0769272  -0.0000001), wk =   0.0004931
        k(  546) = (   0.0222051   0.0769272   0.0817347), wk =   0.0004931
        k(  547) = (   0.0222056   0.0769272  -0.0817348), wk =   0.0004931
        k(  548) = (   0.0444108   0.0769272  -0.0000001), wk =   0.0004931
        k(  549) = (   0.0444105   0.0769272   0.0817347), wk =   0.0004931
        k(  550) = (   0.0444110   0.0769272  -0.0817349), wk =   0.0004931
        k(  551) = (   0.0555135   0.0576954  -0.0000001), wk =   0.0004931
        k(  552) = (   0.0555132   0.0576954   0.0817347), wk =   0.0004931
        k(  553) = (   0.0555137   0.0576954  -0.0817349), wk =   0.0004931
        k(  554) = (   0.0666162   0.0384636  -0.0000002), wk =   0.0004931
        k(  555) = (   0.0666159   0.0384636   0.0817346), wk =   0.0004931
        k(  556) = (   0.0666164   0.0384636  -0.0817350), wk =   0.0004931
        k(  557) = (   0.0777189   0.0192318  -0.0000002), wk =   0.0004931
        k(  558) = (   0.0777186   0.0192318   0.0817346), wk =   0.0004931
        k(  559) = (   0.0777191   0.0192318  -0.0817350), wk =   0.0004931
        k(  560) = (   0.0888215   0.0000000  -0.0000002), wk =   0.0004931
        k(  561) = (   0.0888213   0.0000000   0.0817346), wk =   0.0004931
        k(  562) = (   0.0888218   0.0000000  -0.0817350), wk =   0.0004931
        k(  563) = (   0.0999242  -0.0192318  -0.0000002), wk =   0.0004931
        k(  564) = (   0.0999240  -0.0192318   0.0817346), wk =   0.0004931
        k(  565) = (   0.0999245  -0.0192318  -0.0817350), wk =   0.0004931
        k(  566) = (   0.1110269  -0.0384636  -0.0000003), wk =   0.0004931
        k(  567) = (   0.1110267  -0.0384636   0.0817345), wk =   0.0004931
        k(  568) = (   0.1110272  -0.0384636  -0.0817351), wk =   0.0004931
        k(  569) = (   0.1221296  -0.0576954  -0.0000003), wk =   0.0004931
        k(  570) = (   0.1221294  -0.0576954   0.0817345), wk =   0.0004931
        k(  571) = (   0.1221299  -0.0576954  -0.0817351), wk =   0.0004931
        k(  572) = (   0.1332323  -0.0769272  -0.0000003), wk =   0.0004931
        k(  573) = (   0.1332321  -0.0769272   0.0817345), wk =   0.0004931
        k(  574) = (   0.1332326  -0.0769272  -0.0817351), wk =   0.0004931
        k(  575) = (   0.1443350  -0.0961590  -0.0000003), wk =   0.0004931
        k(  576) = (   0.1443347  -0.0961590   0.0817344), wk =   0.0004931
        k(  577) = (   0.1443353  -0.0961590  -0.0817351), wk =   0.0004931
        k(  578) = (   0.1554377  -0.1153908  -0.0000004), wk =   0.0004931
        k(  579) = (   0.1554374  -0.1153908   0.0817344), wk =   0.0004931
        k(  580) = (   0.1554380  -0.1153908  -0.0817352), wk =   0.0004931
        k(  581) = (   0.1665404  -0.1346225  -0.0000004), wk =   0.0004931
        k(  582) = (   0.1665401  -0.1346225   0.0817344), wk =   0.0004931
        k(  583) = (   0.1665407  -0.1346225  -0.0817352), wk =   0.0004931
        k(  584) = (   0.1776431  -0.1538543  -0.0000004), wk =   0.0004931
        k(  585) = (   0.1776428  -0.1538543   0.0817344), wk =   0.0004931
        k(  586) = (   0.1776433  -0.1538543  -0.0817352), wk =   0.0004931
        k(  587) = (   0.1887458  -0.1730861  -0.0000005), wk =   0.0004931
        k(  588) = (   0.1887455  -0.1730861   0.0817343), wk =   0.0004931
        k(  589) = (   0.1887460  -0.1730861  -0.0817352), wk =   0.0004931
        k(  590) = (   0.1998485  -0.1923179  -0.0000005), wk =   0.0004931
        k(  591) = (   0.1998482  -0.1923179   0.0817343), wk =   0.0004931
        k(  592) = (   0.1998487  -0.1923179  -0.0817353), wk =   0.0004931
        k(  593) = (   0.2109512  -0.2115497  -0.0000005), wk =   0.0004931
        k(  594) = (   0.2109509  -0.2115497   0.0817343), wk =   0.0004931
        k(  595) = (   0.2109514  -0.2115497  -0.0817353), wk =   0.0004931
        k(  596) = (   0.2220539  -0.2307815  -0.0000005), wk =   0.0004931
        k(  597) = (   0.2220536  -0.2307815   0.0817343), wk =   0.0004931
        k(  598) = (   0.2220541  -0.2307815  -0.0817353), wk =   0.0004931
        k(  599) = (   0.2331566  -0.2500133  -0.0000006), wk =   0.0004931
        k(  600) = (   0.2331563  -0.2500133   0.0817342), wk =   0.0004931
        k(  601) = (   0.2331568  -0.2500133  -0.0817354), wk =   0.0004931
        k(  602) = (   0.2442592  -0.2692451  -0.0000006), wk =   0.0004931
        k(  603) = (   0.2442590  -0.2692451   0.0817342), wk =   0.0004931
        k(  604) = (   0.2442595  -0.2692451  -0.0817354), wk =   0.0004931
        k(  605) = (   0.2553619  -0.2884769  -0.0000006), wk =   0.0004931
        k(  606) = (   0.2553617  -0.2884769   0.0817342), wk =   0.0004931
        k(  607) = (   0.2553622  -0.2884769  -0.0817354), wk =   0.0004931
        k(  608) = (   0.2664646  -0.3077087  -0.0000006), wk =   0.0004931
        k(  609) = (   0.2664644  -0.3077087   0.0817341), wk =   0.0004931
        k(  610) = (   0.2664649  -0.3077087  -0.0817354), wk =   0.0004931
        k(  611) = (   0.2775673  -0.3269405  -0.0000007), wk =   0.0004931
        k(  612) = (   0.2775671  -0.3269405   0.0817341), wk =   0.0004931
        k(  613) = (   0.2775676  -0.3269405  -0.0817355), wk =   0.0004931
        k(  614) = (   0.2886700  -0.3461723  -0.0000007), wk =   0.0004931
        k(  615) = (   0.2886698  -0.3461723   0.0817341), wk =   0.0004931
        k(  616) = (   0.2886703  -0.3461723  -0.0817355), wk =   0.0004931
        k(  617) = (   0.2997727  -0.3654041  -0.0000007), wk =   0.0004931
        k(  618) = (   0.2997724  -0.3654041   0.0817341), wk =   0.0004931
        k(  619) = (   0.2997730  -0.3654041  -0.0817355), wk =   0.0004931
        k(  620) = (   0.3108754  -0.3846359  -0.0000007), wk =   0.0004931
        k(  621) = (   0.3108751  -0.3846359   0.0817340), wk =   0.0004931
        k(  622) = (   0.3108757  -0.3846359  -0.0817355), wk =   0.0004931
        k(  623) = (   0.3219781  -0.4038676  -0.0000008), wk =   0.0004931
        k(  624) = (   0.3219778  -0.4038676   0.0817340), wk =   0.0004931
        k(  625) = (   0.3219784  -0.4038676  -0.0817356), wk =   0.0004931
        k(  626) = (  -0.2442592   0.5769538   0.0000006), wk =   0.0004931
        k(  627) = (  -0.2442595   0.5769538   0.0817354), wk =   0.0004931
        k(  628) = (  -0.2442590   0.5769538  -0.0817342), wk =   0.0004931
        k(  629) = (  -0.2331566   0.5577220   0.0000006), wk =   0.0004931
        k(  630) = (  -0.2331568   0.5577220   0.0817354), wk =   0.0004931
        k(  631) = (  -0.2331563   0.5577220  -0.0817342), wk =   0.0004931
        k(  632) = (  -0.2220539   0.5384902   0.0000005), wk =   0.0004931
        k(  633) = (  -0.2220541   0.5384902   0.0817353), wk =   0.0004931
        k(  634) = (  -0.2220536   0.5384902  -0.0817343), wk =   0.0004931
        k(  635) = (  -0.2109512   0.5192584   0.0000005), wk =   0.0004931
        k(  636) = (  -0.2109514   0.5192584   0.0817353), wk =   0.0004931
        k(  637) = (  -0.2109509   0.5192584  -0.0817343), wk =   0.0004931
        k(  638) = (  -0.1998485   0.5000266   0.0000005), wk =   0.0004931
        k(  639) = (  -0.1998487   0.5000266   0.0817353), wk =   0.0004931
        k(  640) = (  -0.1998482   0.5000266  -0.0817343), wk =   0.0004931
        k(  641) = (  -0.1887458   0.4807948   0.0000005), wk =   0.0004931
        k(  642) = (  -0.1887460   0.4807948   0.0817352), wk =   0.0004931
        k(  643) = (  -0.1887455   0.4807948  -0.0817343), wk =   0.0004931
        k(  644) = (  -0.1776431   0.4615630   0.0000004), wk =   0.0004931
        k(  645) = (  -0.1776433   0.4615630   0.0817352), wk =   0.0004931
        k(  646) = (  -0.1776428   0.4615630  -0.0817344), wk =   0.0004931
        k(  647) = (  -0.1665404   0.4423312   0.0000004), wk =   0.0004931
        k(  648) = (  -0.1665407   0.4423312   0.0817352), wk =   0.0004931
        k(  649) = (  -0.1665401   0.4423312  -0.0817344), wk =   0.0004931
        k(  650) = (  -0.1554377   0.4230994   0.0000004), wk =   0.0004931
        k(  651) = (  -0.1554380   0.4230994   0.0817352), wk =   0.0004931
        k(  652) = (  -0.1554374   0.4230994  -0.0817344), wk =   0.0004931
        k(  653) = (  -0.1443350   0.4038676   0.0000003), wk =   0.0004931
        k(  654) = (  -0.1443353   0.4038676   0.0817351), wk =   0.0004931
        k(  655) = (  -0.1443347   0.4038676  -0.0817344), wk =   0.0004931
        k(  656) = (  -0.1332323   0.3846359   0.0000003), wk =   0.0004931
        k(  657) = (  -0.1332326   0.3846359   0.0817351), wk =   0.0004931
        k(  658) = (  -0.1332321   0.3846359  -0.0817345), wk =   0.0004931
        k(  659) = (  -0.1221296   0.3654041   0.0000003), wk =   0.0004931
        k(  660) = (  -0.1221299   0.3654041   0.0817351), wk =   0.0004931
        k(  661) = (  -0.1221294   0.3654041  -0.0817345), wk =   0.0004931
        k(  662) = (  -0.1110269   0.3461723   0.0000003), wk =   0.0004931
        k(  663) = (  -0.1110272   0.3461723   0.0817351), wk =   0.0004931
        k(  664) = (  -0.1110267   0.3461723  -0.0817345), wk =   0.0004931
        k(  665) = (  -0.0999242   0.3269405   0.0000002), wk =   0.0004931
        k(  666) = (  -0.0999245   0.3269405   0.0817350), wk =   0.0004931
        k(  667) = (  -0.0999240   0.3269405  -0.0817346), wk =   0.0004931
        k(  668) = (  -0.0888215   0.3077087   0.0000002), wk =   0.0004931
        k(  669) = (  -0.0888218   0.3077087   0.0817350), wk =   0.0004931
        k(  670) = (  -0.0888213   0.3077087  -0.0817346), wk =   0.0004931
        k(  671) = (  -0.0777189   0.2884769   0.0000002), wk =   0.0004931
        k(  672) = (  -0.0777191   0.2884769   0.0817350), wk =   0.0004931
        k(  673) = (  -0.0777186   0.2884769  -0.0817346), wk =   0.0004931
        k(  674) = (  -0.0666162   0.2692451   0.0000002), wk =   0.0004931
        k(  675) = (  -0.0666164   0.2692451   0.0817350), wk =   0.0004931
        k(  676) = (  -0.0666159   0.2692451  -0.0817346), wk =   0.0004931
        k(  677) = (  -0.0555135   0.2500133   0.0000001), wk =   0.0004931
        k(  678) = (  -0.0555137   0.2500133   0.0817349), wk =   0.0004931
        k(  679) = (  -0.0555132   0.2500133  -0.0817347), wk =   0.0004931
        k(  680) = (  -0.0444108   0.2307815   0.0000001), wk =   0.0004931
        k(  681) = (  -0.0444110   0.2307815   0.0817349), wk =   0.0004931
        k(  682) = (  -0.0444105   0.2307815  -0.0817347), wk =   0.0004931
        k(  683) = (  -0.0333081   0.2115497   0.0000001), wk =   0.0004931
        k(  684) = (  -0.0333083   0.2115497   0.0817349), wk =   0.0004931
        k(  685) = (  -0.0333078   0.2115497  -0.0817347), wk =   0.0004931
        k(  686) = (  -0.0222054   0.1923179   0.0000001), wk =   0.0004931
        k(  687) = (  -0.0222056   0.1923179   0.0817348), wk =   0.0004931
        k(  688) = (  -0.0222051   0.1923179  -0.0817347), wk =   0.0004931
        k(  689) = (  -0.0111027   0.1730861   0.0000000), wk =   0.0004931
        k(  690) = (  -0.0111030   0.1730861   0.0817348), wk =   0.0004931
        k(  691) = (  -0.0111024   0.1730861  -0.0817348), wk =   0.0004931
        k(  692) = (   0.0000000   0.1538543  -0.0000000), wk =   0.0004931
        k(  693) = (  -0.0000003   0.1538543   0.0817348), wk =   0.0004931
        k(  694) = (   0.0000003   0.1538543  -0.0817348), wk =   0.0004931
        k(  695) = (   0.0111027   0.1346225  -0.0000000), wk =   0.0004931
        k(  696) = (   0.0111024   0.1346225   0.0817348), wk =   0.0004931
        k(  697) = (   0.0111030   0.1346225  -0.0817348), wk =   0.0004931
        k(  698) = (   0.0222054   0.1153908  -0.0000001), wk =   0.0004931
        k(  699) = (   0.0222051   0.1153908   0.0817347), wk =   0.0004931
        k(  700) = (   0.0222056   0.1153908  -0.0817348), wk =   0.0004931
        k(  701) = (   0.0333081   0.0961590  -0.0000001), wk =   0.0004931
        k(  702) = (   0.0333078   0.0961590   0.0817347), wk =   0.0004931
        k(  703) = (   0.0333083   0.0961590  -0.0817349), wk =   0.0004931
        k(  704) = (   0.0555135   0.0961590  -0.0000001), wk =   0.0004931
        k(  705) = (   0.0555132   0.0961590   0.0817347), wk =   0.0004931
        k(  706) = (   0.0555137   0.0961590  -0.0817349), wk =   0.0004931
        k(  707) = (   0.0666162   0.0769272  -0.0000002), wk =   0.0004931
        k(  708) = (   0.0666159   0.0769272   0.0817346), wk =   0.0004931
        k(  709) = (   0.0666164   0.0769272  -0.0817350), wk =   0.0004931
        k(  710) = (   0.0777189   0.0576954  -0.0000002), wk =   0.0004931
        k(  711) = (   0.0777186   0.0576954   0.0817346), wk =   0.0004931
        k(  712) = (   0.0777191   0.0576954  -0.0817350), wk =   0.0004931
        k(  713) = (   0.0888215   0.0384636  -0.0000002), wk =   0.0004931
        k(  714) = (   0.0888213   0.0384636   0.0817346), wk =   0.0004931
        k(  715) = (   0.0888218   0.0384636  -0.0817350), wk =   0.0004931
        k(  716) = (   0.0999242   0.0192318  -0.0000002), wk =   0.0004931
        k(  717) = (   0.0999240   0.0192318   0.0817346), wk =   0.0004931
        k(  718) = (   0.0999245   0.0192318  -0.0817350), wk =   0.0004931
        k(  719) = (   0.1110269   0.0000000  -0.0000003), wk =   0.0004931
        k(  720) = (   0.1110267   0.0000000   0.0817345), wk =   0.0004931
        k(  721) = (   0.1110272   0.0000000  -0.0817351), wk =   0.0004931
        k(  722) = (   0.1221296  -0.0192318  -0.0000003), wk =   0.0004931
        k(  723) = (   0.1221294  -0.0192318   0.0817345), wk =   0.0004931
        k(  724) = (   0.1221299  -0.0192318  -0.0817351), wk =   0.0004931
        k(  725) = (   0.1332323  -0.0384636  -0.0000003), wk =   0.0004931
        k(  726) = (   0.1332321  -0.0384636   0.0817345), wk =   0.0004931
        k(  727) = (   0.1332326  -0.0384636  -0.0817351), wk =   0.0004931
        k(  728) = (   0.1443350  -0.0576954  -0.0000003), wk =   0.0004931
        k(  729) = (   0.1443347  -0.0576954   0.0817344), wk =   0.0004931
        k(  730) = (   0.1443353  -0.0576954  -0.0817351), wk =   0.0004931
        k(  731) = (   0.1554377  -0.0769272  -0.0000004), wk =   0.0004931
        k(  732) = (   0.1554374  -0.0769272   0.0817344), wk =   0.0004931
        k(  733) = (   0.1554380  -0.0769272  -0.0817352), wk =   0.0004931
        k(  734) = (   0.1665404  -0.0961590  -0.0000004), wk =   0.0004931
        k(  735) = (   0.1665401  -0.0961590   0.0817344), wk =   0.0004931
        k(  736) = (   0.1665407  -0.0961590  -0.0817352), wk =   0.0004931
        k(  737) = (   0.1776431  -0.1153908  -0.0000004), wk =   0.0004931
        k(  738) = (   0.1776428  -0.1153908   0.0817344), wk =   0.0004931
        k(  739) = (   0.1776433  -0.1153908  -0.0817352), wk =   0.0004931
        k(  740) = (   0.1887458  -0.1346225  -0.0000005), wk =   0.0004931
        k(  741) = (   0.1887455  -0.1346225   0.0817343), wk =   0.0004931
        k(  742) = (   0.1887460  -0.1346225  -0.0817352), wk =   0.0004931
        k(  743) = (   0.1998485  -0.1538543  -0.0000005), wk =   0.0004931
        k(  744) = (   0.1998482  -0.1538543   0.0817343), wk =   0.0004931
        k(  745) = (   0.1998487  -0.1538543  -0.0817353), wk =   0.0004931
        k(  746) = (   0.2109512  -0.1730861  -0.0000005), wk =   0.0004931
        k(  747) = (   0.2109509  -0.1730861   0.0817343), wk =   0.0004931
        k(  748) = (   0.2109514  -0.1730861  -0.0817353), wk =   0.0004931
        k(  749) = (   0.2220539  -0.1923179  -0.0000005), wk =   0.0004931
        k(  750) = (   0.2220536  -0.1923179   0.0817343), wk =   0.0004931
        k(  751) = (   0.2220541  -0.1923179  -0.0817353), wk =   0.0004931
        k(  752) = (   0.2331566  -0.2115497  -0.0000006), wk =   0.0004931
        k(  753) = (   0.2331563  -0.2115497   0.0817342), wk =   0.0004931
        k(  754) = (   0.2331568  -0.2115497  -0.0817354), wk =   0.0004931
        k(  755) = (   0.2442592  -0.2307815  -0.0000006), wk =   0.0004931
        k(  756) = (   0.2442590  -0.2307815   0.0817342), wk =   0.0004931
        k(  757) = (   0.2442595  -0.2307815  -0.0817354), wk =   0.0004931
        k(  758) = (   0.2553619  -0.2500133  -0.0000006), wk =   0.0004931
        k(  759) = (   0.2553617  -0.2500133   0.0817342), wk =   0.0004931
        k(  760) = (   0.2553622  -0.2500133  -0.0817354), wk =   0.0004931
        k(  761) = (   0.2664646  -0.2692451  -0.0000006), wk =   0.0004931
        k(  762) = (   0.2664644  -0.2692451   0.0817341), wk =   0.0004931
        k(  763) = (   0.2664649  -0.2692451  -0.0817354), wk =   0.0004931
        k(  764) = (   0.2775673  -0.2884769  -0.0000007), wk =   0.0004931
        k(  765) = (   0.2775671  -0.2884769   0.0817341), wk =   0.0004931
        k(  766) = (   0.2775676  -0.2884769  -0.0817355), wk =   0.0004931
        k(  767) = (   0.2886700  -0.3077087  -0.0000007), wk =   0.0004931
        k(  768) = (   0.2886698  -0.3077087   0.0817341), wk =   0.0004931
        k(  769) = (   0.2886703  -0.3077087  -0.0817355), wk =   0.0004931
        k(  770) = (   0.2997727  -0.3269405  -0.0000007), wk =   0.0004931
        k(  771) = (   0.2997724  -0.3269405   0.0817341), wk =   0.0004931
        k(  772) = (   0.2997730  -0.3269405  -0.0817355), wk =   0.0004931
        k(  773) = (   0.3108754  -0.3461723  -0.0000007), wk =   0.0004931
        k(  774) = (   0.3108751  -0.3461723   0.0817340), wk =   0.0004931
        k(  775) = (   0.3108757  -0.3461723  -0.0817355), wk =   0.0004931
        k(  776) = (   0.3219781  -0.3654041  -0.0000008), wk =   0.0004931
        k(  777) = (   0.3219778  -0.3654041   0.0817340), wk =   0.0004931
        k(  778) = (   0.3219784  -0.3654041  -0.0817356), wk =   0.0004931
        k(  779) = (   0.3330808  -0.3846359  -0.0000008), wk =   0.0004931
        k(  780) = (   0.3330805  -0.3846359   0.0817340), wk =   0.0004931
        k(  781) = (   0.3330810  -0.3846359  -0.0817356), wk =   0.0004931
        k(  782) = (  -0.2331566   0.5961856   0.0000006), wk =   0.0004931
        k(  783) = (  -0.2331568   0.5961856   0.0817354), wk =   0.0004931
        k(  784) = (  -0.2331563   0.5961856  -0.0817342), wk =   0.0004931
        k(  785) = (  -0.2220539   0.5769538   0.0000005), wk =   0.0004931
        k(  786) = (  -0.2220541   0.5769538   0.0817353), wk =   0.0004931
        k(  787) = (  -0.2220536   0.5769538  -0.0817343), wk =   0.0004931
        k(  788) = (  -0.2109512   0.5577220   0.0000005), wk =   0.0004931
        k(  789) = (  -0.2109514   0.5577220   0.0817353), wk =   0.0004931
        k(  790) = (  -0.2109509   0.5577220  -0.0817343), wk =   0.0004931
        k(  791) = (  -0.1998485   0.5384902   0.0000005), wk =   0.0004931
        k(  792) = (  -0.1998487   0.5384902   0.0817353), wk =   0.0004931
        k(  793) = (  -0.1998482   0.5384902  -0.0817343), wk =   0.0004931
        k(  794) = (  -0.1887458   0.5192584   0.0000005), wk =   0.0004931
        k(  795) = (  -0.1887460   0.5192584   0.0817352), wk =   0.0004931
        k(  796) = (  -0.1887455   0.5192584  -0.0817343), wk =   0.0004931
        k(  797) = (  -0.1776431   0.5000266   0.0000004), wk =   0.0004931
        k(  798) = (  -0.1776433   0.5000266   0.0817352), wk =   0.0004931
        k(  799) = (  -0.1776428   0.5000266  -0.0817344), wk =   0.0004931
        k(  800) = (  -0.1665404   0.4807948   0.0000004), wk =   0.0004931
        k(  801) = (  -0.1665407   0.4807948   0.0817352), wk =   0.0004931
        k(  802) = (  -0.1665401   0.4807948  -0.0817344), wk =   0.0004931
        k(  803) = (  -0.1554377   0.4615630   0.0000004), wk =   0.0004931
        k(  804) = (  -0.1554380   0.4615630   0.0817352), wk =   0.0004931
        k(  805) = (  -0.1554374   0.4615630  -0.0817344), wk =   0.0004931
        k(  806) = (  -0.1443350   0.4423312   0.0000003), wk =   0.0004931
        k(  807) = (  -0.1443353   0.4423312   0.0817351), wk =   0.0004931
        k(  808) = (  -0.1443347   0.4423312  -0.0817344), wk =   0.0004931
        k(  809) = (  -0.1332323   0.4230994   0.0000003), wk =   0.0004931
        k(  810) = (  -0.1332326   0.4230994   0.0817351), wk =   0.0004931
        k(  811) = (  -0.1332321   0.4230994  -0.0817345), wk =   0.0004931
        k(  812) = (  -0.1221296   0.4038676   0.0000003), wk =   0.0004931
        k(  813) = (  -0.1221299   0.4038676   0.0817351), wk =   0.0004931
        k(  814) = (  -0.1221294   0.4038676  -0.0817345), wk =   0.0004931
        k(  815) = (  -0.1110269   0.3846359   0.0000003), wk =   0.0004931
        k(  816) = (  -0.1110272   0.3846359   0.0817351), wk =   0.0004931
        k(  817) = (  -0.1110267   0.3846359  -0.0817345), wk =   0.0004931
        k(  818) = (  -0.0999242   0.3654041   0.0000002), wk =   0.0004931
        k(  819) = (  -0.0999245   0.3654041   0.0817350), wk =   0.0004931
        k(  820) = (  -0.0999240   0.3654041  -0.0817346), wk =   0.0004931
        k(  821) = (  -0.0888215   0.3461723   0.0000002), wk =   0.0004931
        k(  822) = (  -0.0888218   0.3461723   0.0817350), wk =   0.0004931
        k(  823) = (  -0.0888213   0.3461723  -0.0817346), wk =   0.0004931
        k(  824) = (  -0.0777189   0.3269405   0.0000002), wk =   0.0004931
        k(  825) = (  -0.0777191   0.3269405   0.0817350), wk =   0.0004931
        k(  826) = (  -0.0777186   0.3269405  -0.0817346), wk =   0.0004931
        k(  827) = (  -0.0666162   0.3077087   0.0000002), wk =   0.0004931
        k(  828) = (  -0.0666164   0.3077087   0.0817350), wk =   0.0004931
        k(  829) = (  -0.0666159   0.3077087  -0.0817346), wk =   0.0004931
        k(  830) = (  -0.0555135   0.2884769   0.0000001), wk =   0.0004931
        k(  831) = (  -0.0555137   0.2884769   0.0817349), wk =   0.0004931
        k(  832) = (  -0.0555132   0.2884769  -0.0817347), wk =   0.0004931
        k(  833) = (  -0.0444108   0.2692451   0.0000001), wk =   0.0004931
        k(  834) = (  -0.0444110   0.2692451   0.0817349), wk =   0.0004931
        k(  835) = (  -0.0444105   0.2692451  -0.0817347), wk =   0.0004931
        k(  836) = (  -0.0333081   0.2500133   0.0000001), wk =   0.0004931
        k(  837) = (  -0.0333083   0.2500133   0.0817349), wk =   0.0004931
        k(  838) = (  -0.0333078   0.2500133  -0.0817347), wk =   0.0004931
        k(  839) = (  -0.0222054   0.2307815   0.0000001), wk =   0.0004931
        k(  840) = (  -0.0222056   0.2307815   0.0817348), wk =   0.0004931
        k(  841) = (  -0.0222051   0.2307815  -0.0817347), wk =   0.0004931
        k(  842) = (  -0.0111027   0.2115497   0.0000000), wk =   0.0004931
        k(  843) = (  -0.0111030   0.2115497   0.0817348), wk =   0.0004931
        k(  844) = (  -0.0111024   0.2115497  -0.0817348), wk =   0.0004931
        k(  845) = (   0.0000000   0.1923179  -0.0000000), wk =   0.0004931
        k(  846) = (  -0.0000003   0.1923179   0.0817348), wk =   0.0004931
        k(  847) = (   0.0000003   0.1923179  -0.0817348), wk =   0.0004931
        k(  848) = (   0.0111027   0.1730861  -0.0000000), wk =   0.0004931
        k(  849) = (   0.0111024   0.1730861   0.0817348), wk =   0.0004931
        k(  850) = (   0.0111030   0.1730861  -0.0817348), wk =   0.0004931
        k(  851) = (   0.0222054   0.1538543  -0.0000001), wk =   0.0004931
        k(  852) = (   0.0222051   0.1538543   0.0817347), wk =   0.0004931
        k(  853) = (   0.0222056   0.1538543  -0.0817348), wk =   0.0004931
        k(  854) = (   0.0333081   0.1346225  -0.0000001), wk =   0.0004931
        k(  855) = (   0.0333078   0.1346225   0.0817347), wk =   0.0004931
        k(  856) = (   0.0333083   0.1346225  -0.0817349), wk =   0.0004931
        k(  857) = (   0.0444108   0.1153908  -0.0000001), wk =   0.0004931
        k(  858) = (   0.0444105   0.1153908   0.0817347), wk =   0.0004931
        k(  859) = (   0.0444110   0.1153908  -0.0817349), wk =   0.0004931
        k(  860) = (   0.0666162   0.1153908  -0.0000002), wk =   0.0004931
        k(  861) = (   0.0666159   0.1153908   0.0817346), wk =   0.0004931
        k(  862) = (   0.0666164   0.1153908  -0.0817350), wk =   0.0004931
        k(  863) = (   0.0777189   0.0961590  -0.0000002), wk =   0.0004931
        k(  864) = (   0.0777186   0.0961590   0.0817346), wk =   0.0004931
        k(  865) = (   0.0777191   0.0961590  -0.0817350), wk =   0.0004931
        k(  866) = (   0.0888215   0.0769272  -0.0000002), wk =   0.0004931
        k(  867) = (   0.0888213   0.0769272   0.0817346), wk =   0.0004931
        k(  868) = (   0.0888218   0.0769272  -0.0817350), wk =   0.0004931
        k(  869) = (   0.0999242   0.0576954  -0.0000002), wk =   0.0004931
        k(  870) = (   0.0999240   0.0576954   0.0817346), wk =   0.0004931
        k(  871) = (   0.0999245   0.0576954  -0.0817350), wk =   0.0004931
        k(  872) = (   0.1110269   0.0384636  -0.0000003), wk =   0.0004931
        k(  873) = (   0.1110267   0.0384636   0.0817345), wk =   0.0004931
        k(  874) = (   0.1110272   0.0384636  -0.0817351), wk =   0.0004931
        k(  875) = (   0.1221296   0.0192318  -0.0000003), wk =   0.0004931
        k(  876) = (   0.1221294   0.0192318   0.0817345), wk =   0.0004931
        k(  877) = (   0.1221299   0.0192318  -0.0817351), wk =   0.0004931
        k(  878) = (   0.1332323   0.0000000  -0.0000003), wk =   0.0004931
        k(  879) = (   0.1332321   0.0000000   0.0817345), wk =   0.0004931
        k(  880) = (   0.1332326   0.0000000  -0.0817351), wk =   0.0004931
        k(  881) = (   0.1443350  -0.0192318  -0.0000003), wk =   0.0004931
        k(  882) = (   0.1443347  -0.0192318   0.0817344), wk =   0.0004931
        k(  883) = (   0.1443353  -0.0192318  -0.0817351), wk =   0.0004931
        k(  884) = (   0.1554377  -0.0384636  -0.0000004), wk =   0.0004931
        k(  885) = (   0.1554374  -0.0384636   0.0817344), wk =   0.0004931
        k(  886) = (   0.1554380  -0.0384636  -0.0817352), wk =   0.0004931
        k(  887) = (   0.1665404  -0.0576954  -0.0000004), wk =   0.0004931
        k(  888) = (   0.1665401  -0.0576954   0.0817344), wk =   0.0004931
        k(  889) = (   0.1665407  -0.0576954  -0.0817352), wk =   0.0004931
        k(  890) = (   0.1776431  -0.0769272  -0.0000004), wk =   0.0004931
        k(  891) = (   0.1776428  -0.0769272   0.0817344), wk =   0.0004931
        k(  892) = (   0.1776433  -0.0769272  -0.0817352), wk =   0.0004931
        k(  893) = (   0.1887458  -0.0961590  -0.0000005), wk =   0.0004931
        k(  894) = (   0.1887455  -0.0961590   0.0817343), wk =   0.0004931
        k(  895) = (   0.1887460  -0.0961590  -0.0817352), wk =   0.0004931
        k(  896) = (   0.1998485  -0.1153908  -0.0000005), wk =   0.0004931
        k(  897) = (   0.1998482  -0.1153908   0.0817343), wk =   0.0004931
        k(  898) = (   0.1998487  -0.1153908  -0.0817353), wk =   0.0004931
        k(  899) = (   0.2109512  -0.1346225  -0.0000005), wk =   0.0004931
        k(  900) = (   0.2109509  -0.1346225   0.0817343), wk =   0.0004931
        k(  901) = (   0.2109514  -0.1346225  -0.0817353), wk =   0.0004931
        k(  902) = (   0.2220539  -0.1538543  -0.0000005), wk =   0.0004931
        k(  903) = (   0.2220536  -0.1538543   0.0817343), wk =   0.0004931
        k(  904) = (   0.2220541  -0.1538543  -0.0817353), wk =   0.0004931
        k(  905) = (   0.2331566  -0.1730861  -0.0000006), wk =   0.0004931
        k(  906) = (   0.2331563  -0.1730861   0.0817342), wk =   0.0004931
        k(  907) = (   0.2331568  -0.1730861  -0.0817354), wk =   0.0004931
        k(  908) = (   0.2442592  -0.1923179  -0.0000006), wk =   0.0004931
        k(  909) = (   0.2442590  -0.1923179   0.0817342), wk =   0.0004931
        k(  910) = (   0.2442595  -0.1923179  -0.0817354), wk =   0.0004931
        k(  911) = (   0.2553619  -0.2115497  -0.0000006), wk =   0.0004931
        k(  912) = (   0.2553617  -0.2115497   0.0817342), wk =   0.0004931
        k(  913) = (   0.2553622  -0.2115497  -0.0817354), wk =   0.0004931
        k(  914) = (   0.2664646  -0.2307815  -0.0000006), wk =   0.0004931
        k(  915) = (   0.2664644  -0.2307815   0.0817341), wk =   0.0004931
        k(  916) = (   0.2664649  -0.2307815  -0.0817354), wk =   0.0004931
        k(  917) = (   0.2775673  -0.2500133  -0.0000007), wk =   0.0004931
        k(  918) = (   0.2775671  -0.2500133   0.0817341), wk =   0.0004931
        k(  919) = (   0.2775676  -0.2500133  -0.0817355), wk =   0.0004931
        k(  920) = (   0.2886700  -0.2692451  -0.0000007), wk =   0.0004931
        k(  921) = (   0.2886698  -0.2692451   0.0817341), wk =   0.0004931
        k(  922) = (   0.2886703  -0.2692451  -0.0817355), wk =   0.0004931
        k(  923) = (   0.2997727  -0.2884769  -0.0000007), wk =   0.0004931
        k(  924) = (   0.2997724  -0.2884769   0.0817341), wk =   0.0004931
        k(  925) = (   0.2997730  -0.2884769  -0.0817355), wk =   0.0004931
        k(  926) = (   0.3108754  -0.3077087  -0.0000007), wk =   0.0004931
        k(  927) = (   0.3108751  -0.3077087   0.0817340), wk =   0.0004931
        k(  928) = (   0.3108757  -0.3077087  -0.0817355), wk =   0.0004931
        k(  929) = (   0.3219781  -0.3269405  -0.0000008), wk =   0.0004931
        k(  930) = (   0.3219778  -0.3269405   0.0817340), wk =   0.0004931
        k(  931) = (   0.3219784  -0.3269405  -0.0817356), wk =   0.0004931
        k(  932) = (   0.3330808  -0.3461723  -0.0000008), wk =   0.0004931
        k(  933) = (   0.3330805  -0.3461723   0.0817340), wk =   0.0004931
        k(  934) = (   0.3330810  -0.3461723  -0.0817356), wk =   0.0004931
        k(  935) = (   0.3441835  -0.3654041  -0.0000008), wk =   0.0004931
        k(  936) = (   0.3441832  -0.3654041   0.0817340), wk =   0.0004931
        k(  937) = (   0.3441837  -0.3654041  -0.0817356), wk =   0.0004931
        k(  938) = (  -0.2220539   0.6154174   0.0000005), wk =   0.0004931
        k(  939) = (  -0.2220541   0.6154174   0.0817353), wk =   0.0004931
        k(  940) = (  -0.2220536   0.6154174  -0.0817343), wk =   0.0004931
        k(  941) = (  -0.2109512   0.5961856   0.0000005), wk =   0.0004931
        k(  942) = (  -0.2109514   0.5961856   0.0817353), wk =   0.0004931
        k(  943) = (  -0.2109509   0.5961856  -0.0817343), wk =   0.0004931
        k(  944) = (  -0.1998485   0.5769538   0.0000005), wk =   0.0004931
        k(  945) = (  -0.1998487   0.5769538   0.0817353), wk =   0.0004931
        k(  946) = (  -0.1998482   0.5769538  -0.0817343), wk =   0.0004931
        k(  947) = (  -0.1887458   0.5577220   0.0000005), wk =   0.0004931
        k(  948) = (  -0.1887460   0.5577220   0.0817352), wk =   0.0004931
        k(  949) = (  -0.1887455   0.5577220  -0.0817343), wk =   0.0004931
        k(  950) = (  -0.1776431   0.5384902   0.0000004), wk =   0.0004931
        k(  951) = (  -0.1776433   0.5384902   0.0817352), wk =   0.0004931
        k(  952) = (  -0.1776428   0.5384902  -0.0817344), wk =   0.0004931
        k(  953) = (  -0.1665404   0.5192584   0.0000004), wk =   0.0004931
        k(  954) = (  -0.1665407   0.5192584   0.0817352), wk =   0.0004931
[...]
     1.0000   1.0000   1.0000   1.0000   1.0000   1.0000   1.0000   1.0000
     1.0000   1.0000   1.0000   1.0000   1.0000   1.0000   1.0000   1.0000
     1.0000   1.0000   0.0000   0.0000   0.0000   0.0000   0.0000   0.0000
     0.0000

          k =-0.1110-0.8077-0.0817 (  6607 PWs)   bands (ev):

   -12.5422 -12.5407  -6.2286  -6.2244  -0.9003  -0.8464   0.3866   0.4118
     0.6861   0.7084   1.9635   2.2930   2.8053   2.8519   3.2836   3.5376
     5.6649   5.9180   8.6195   8.7332  10.4225  10.6967  11.0564  11.2895
    12.1075

     occupation numbers 
     1.0000   1.0000   1.0000   1.0000   1.0000   1.0000   1.0000   1.0000
     1.0000   1.0000   1.0000   1.0000   1.0000   1.0000   1.0000   1.0000
     1.0000   1.0000   0.0000   0.0000   0.0000   0.0000   0.0000   0.0000
     0.0000

          k =-0.0999-0.8270 0.0000 (  6620 PWs)   bands (ev):

   -12.5419 -12.5404  -6.2255  -6.2206  -0.9753  -0.8684   0.3353   0.4034
     0.6928   0.7351   1.8362   2.5692   2.8332   2.9940   3.1780   3.6435
     5.4998   6.0249   8.3946   8.7668  10.4942  10.7943  10.9450  11.5280
    11.7407

     occupation numbers 
     1.0000   1.0000   1.0000   1.0000   1.0000   1.0000   1.0000   1.0000
     1.0000   1.0000   1.0000   1.0000   1.0000   1.0000   1.0000   1.0000
     1.0000   1.0000   0.0000   0.0000   0.0000   0.0000   0.0000   0.0000
     0.0000

          k =-0.0999-0.8270 0.0817 (  6611 PWs)   bands (ev):

   -12.5419 -12.5404  -6.2251  -6.2209  -0.9498  -0.8964   0.3507   0.3844
     0.7010   0.7226   1.9761   2.3059   2.9342   2.9787   3.3109   3.5408
     5.6347   5.8964   8.4913   8.6773  10.5568  10.7293  11.0055  11.2720
    12.0130

     occupation numbers 
     1.0000   1.0000   1.0000   1.0000   1.0000   1.0000   1.0000   1.0000
     1.0000   1.0000   1.0000   1.0000   1.0000   1.0000   1.0000   1.0000
     1.0000   1.0000   0.0000   0.0000   0.0000   0.0000   0.0000   0.0000
     0.0000

          k =-0.0999-0.8270-0.0817 (  6611 PWs)   bands (ev):

   -12.5419 -12.5404  -6.2251  -6.2209  -0.9498  -0.8964   0.3503   0.3848
     0.7012   0.7224   1.9761   2.3060   2.9312   2.9819   3.3106   3.5408
     5.6346   5.8964   8.4913   8.6773  10.5568  10.7295  11.0047  11.2726
    12.0129

     occupation numbers 
     1.0000   1.0000   1.0000   1.0000   1.0000   1.0000   1.0000   1.0000
     1.0000   1.0000   1.0000   1.0000   1.0000   1.0000   1.0000   1.0000
     1.0000   1.0000   0.0000   0.0000   0.0000   0.0000   0.0000   0.0000
     0.0000

          k =-0.0888-0.8462 0.0000 (  6610 PWs)   bands (ev):

   -12.5415 -12.5401  -6.2213  -6.2164  -1.0282  -0.9226   0.2619   0.3431
     0.7475   0.7861   1.8542   2.5902   2.8639   3.1307   3.3198   3.6502
     5.4611   6.0027   8.2349   8.7496  10.5860  10.7549  10.9045  11.4318
    11.7630

     occupation numbers 
     1.0000   1.0000   1.0000   1.0000   1.0000   1.0000   1.0000   1.0000
     1.0000   1.0000   1.0000   1.0000   1.0000   1.0000   1.0000   1.0000
     1.0000   1.0000   0.0000   0.0000   0.0000   0.0000   0.0000   0.0000
     0.0000

          k =-0.0888-0.8462 0.0817 (  6606 PWs)   bands (ev):

   -12.5415 -12.5401  -6.2209  -6.2168  -1.0030  -0.9503   0.2804   0.3208
     0.7554   0.7748   1.9913   2.3184   3.0350   3.1177   3.3809   3.5555
     5.6001   5.8700   8.3584   8.6139  10.6563  10.7539  10.9569  11.2290
    11.9405

     occupation numbers 
     1.0000   1.0000   1.0000   1.0000   1.0000   1.0000   1.0000   1.0000
     1.0000   1.0000   1.0000   1.0000   1.0000   1.0000   1.0000   1.0000
     1.0000   1.0000   0.0000   0.0000   0.0000   0.0000   0.0000   0.0000
     0.0000

          k =-0.0888-0.8462-0.0817 (  6606 PWs)   bands (ev):

   -12.5415 -12.5401  -6.2209  -6.2168  -1.0030  -0.9502   0.2801   0.3210
     0.7555   0.7747   1.9914   2.3184   3.0337   3.1193   3.3806   3.5555
     5.6001   5.8700   8.3584   8.6139  10.6564  10.7540  10.9561  11.2296
    11.9410

     occupation numbers 
     1.0000   1.0000   1.0000   1.0000   1.0000   1.0000   1.0000   1.0000
     1.0000   1.0000   1.0000   1.0000   1.0000   1.0000   1.0000   1.0000
     1.0000   1.0000   0.0000   0.0000   0.0000   0.0000   0.0000   0.0000
     0.0000

          k =-0.0777-0.8654 0.0000 (  6617 PWs)   bands (ev):

   -12.5412 -12.5397  -6.2168  -6.2118  -1.0810  -0.9771   0.1754   0.2658
     0.8224   0.8570   1.8746   2.6044   2.8683   3.2758   3.4880   3.6739
     5.4210   5.9761   8.0821   8.7277  10.5230  10.7984  10.8632  11.3151
    11.7530

     occupation numbers 
     1.0000   1.0000   1.0000   1.0000   1.0000   1.0000   1.0000   1.0000
     1.0000   1.0000   1.0000   1.0000   1.0000   1.0000   1.0000   1.0000
     1.0000   1.0000   0.0000   0.0000   0.0000   0.0000   0.0000   0.0000
     0.0000

          k =-0.0777-0.8654 0.0817 (  6600 PWs)   bands (ev):

   -12.5411 -12.5397  -6.2164  -6.2122  -1.0562  -1.0043   0.1962   0.2413
     0.8296   0.8469   2.0086   2.3303   3.0818   3.2427   3.5080   3.6008
     5.5637   5.8401   8.2285   8.5460  10.6600  10.7830  10.9166  11.1614
    11.8666

     occupation numbers 
     1.0000   1.0000   1.0000   1.0000   1.0000   1.0000   1.0000   1.0000
     1.0000   1.0000   1.0000   1.0000   1.0000   1.0000   1.0000   1.0000
     1.0000   1.0000   0.0000   0.0000   0.0000   0.0000   0.0000   0.0000
     0.0000

          k =-0.0777-0.8654-0.0817 (  6601 PWs)   bands (ev):

   -12.5411 -12.5397  -6.2164  -6.2122  -1.0562  -1.0042   0.1960   0.2415
     0.8297   0.8468   2.0087   2.3302   3.0815   3.2431   3.5079   3.6007
     5.5637   5.8402   8.2284   8.5460  10.6602  10.7830  10.9157  11.1621
    11.8681

     occupation numbers 
     1.0000   1.0000   1.0000   1.0000   1.0000   1.0000   1.0000   1.0000
     1.0000   1.0000   1.0000   1.0000   1.0000   1.0000   1.0000   1.0000
     1.0000   1.0000   0.0000   0.0000   0.0000   0.0000   0.0000   0.0000
     0.0000

          k =-0.0666-0.8847 0.0000 (  6611 PWs)   bands (ev):

   -12.5408 -12.5393  -6.2120  -6.2070  -1.1308  -1.0288   0.0886   0.1861
     0.9041   0.9340   1.8968   2.6146   2.8611   3.3894   3.6657   3.7372
     5.3821   5.9465   7.9409   8.7006  10.4300  10.6828  10.9299  11.1970
    11.5727

     occupation numbers 
     1.0000   1.0000   1.0000   1.0000   1.0000   1.0000   1.0000   1.0000
     1.0000   1.0000   1.0000   1.0000   1.0000   1.0000   1.0000   1.0000
     1.0000   1.0000   0.0000   0.0000   0.0000   0.0000   0.0000   0.0000
     0.0000

          k =-0.0666-0.8847 0.0817 (  6601 PWs)   bands (ev):

   -12.5407 -12.5393  -6.2116  -6.2074  -1.1064  -1.0555   0.1114   0.1600
     0.9104   0.9253   2.0270   2.3414   3.0931   3.3180   3.6691   3.7005
     5.5275   5.8086   8.1063   8.4768  10.5989  10.7230  10.9189  11.0841
    11.7161

     occupation numbers 
     1.0000   1.0000   1.0000   1.0000   1.0000   1.0000   1.0000   1.0000
     1.0000   1.0000   1.0000   1.0000   1.0000   1.0000   1.0000   1.0000
     1.0000   1.0000   0.0000   0.0000   0.0000   0.0000   0.0000   0.0000
     0.0000

          k =-0.0666-0.8847-0.0817 (  6601 PWs)   bands (ev):

   -12.5407 -12.5393  -6.2116  -6.2074  -1.1065  -1.0555   0.1112   0.1601
     0.9104   0.9253   2.0271   2.3414   3.0931   3.3181   3.6692   3.7003
     5.5274   5.8086   8.1062   8.4768  10.5991  10.7225  10.9185  11.0849
    11.7169

     occupation numbers 
     1.0000   1.0000   1.0000   1.0000   1.0000   1.0000   1.0000   1.0000
     1.0000   1.0000   1.0000   1.0000   1.0000   1.0000   1.0000   1.0000
     1.0000   1.0000   0.0000   0.0000   0.0000   0.0000   0.0000   0.0000
     0.0000

          k =-0.0555-0.9039 0.0000 (  6606 PWs)   bands (ev):

   -12.5404 -12.5389  -6.2074  -6.2023  -1.1756  -1.0756   0.0086   0.1117
     0.9847   1.0093   1.9194   2.6220   2.8486   3.4476   3.8407   3.8536
     5.3463   5.9158   7.8145   8.6690  10.3415  10.5268  10.9505  11.1131
    11.3215

     occupation numbers 
     1.0000   1.0000   1.0000   1.0000   1.0000   1.0000   1.0000   1.0000
     1.0000   1.0000   1.0000   1.0000   1.0000   1.0000   1.0000   1.0000
     1.0000   1.0000   0.0000   0.0000   0.0000   0.0000   0.0000   0.0000
     0.0000

          k =-0.0555-0.9039 0.0817 (  6612 PWs)   bands (ev):

   -12.5404 -12.5389  -6.2070  -6.2028  -1.1517  -1.1017   0.0328   0.0843
     0.9899   1.0021   2.0456   2.3515   3.0890   3.3458   3.8371   3.8440
     5.4934   5.7771   7.9953   8.4093  10.5048  10.5832  10.9237  11.0253
    11.5317

     occupation numbers 
     1.0000   1.0000   1.0000   1.0000   1.0000   1.0000   1.0000   1.0000
     1.0000   1.0000   1.0000   1.0000   1.0000   1.0000   1.0000   1.0000
     1.0000   1.0000   0.0000   0.0000   0.0000   0.0000   0.0000   0.0000
     0.0000

          k =-0.0555-0.9039-0.0817 (  6611 PWs)   bands (ev):

   -12.5404 -12.5389  -6.2070  -6.2028  -1.1517  -1.1017   0.0327   0.0844
     0.9899   1.0021   2.0456   2.3515   3.0891   3.3458   3.8379   3.8432
     5.4934   5.7771   7.9953   8.4093  10.5050  10.5825  10.9238  11.0259
    11.5316

     occupation numbers 
     1.0000   1.0000   1.0000   1.0000   1.0000   1.0000   1.0000   1.0000
     1.0000   1.0000   1.0000   1.0000   1.0000   1.0000   1.0000   1.0000
     1.0000   1.0000   0.0000   0.0000   0.0000   0.0000   0.0000   0.0000
     0.0000

          k =-0.0444-0.9231 0.0000 (  6606 PWs)   bands (ev):

   -12.5400 -12.5386  -6.2032  -6.1981  -1.2138  -1.1158  -0.0606   0.0469
     1.0585   1.0775   1.9412   2.6267   2.8342   3.4680   3.9927   4.0057
     5.3151   5.8863   7.7053   8.6347  10.2643  10.3592  10.8999  11.0748
    11.1118

     occupation numbers 
     1.0000   1.0000   1.0000   1.0000   1.0000   1.0000   1.0000   1.0000
     1.0000   1.0000   1.0000   1.0000   1.0000   1.0000   1.0000   1.0000
     1.0000   1.0000   0.0000   0.0000   0.0000   0.0000   0.0000   0.0000
     0.0000

          k =-0.0444-0.9231 0.0817 (  6618 PWs)   bands (ev):

   -12.5400 -12.5386  -6.2028  -6.1985  -1.1904  -1.1414  -0.0353   0.0184
     1.0625   1.0720   2.0632   2.3602   3.0788   3.3510   3.9928   4.0011
     5.4630   5.7478   7.8984   8.3468  10.3907  10.4186  10.8983  11.0022
    11.3750

     occupation numbers 
     1.0000   1.0000   1.0000   1.0000   1.0000   1.0000   1.0000   1.0000
     1.0000   1.0000   1.0000   1.0000   1.0000   1.0000   1.0000   1.0000
     1.0000   1.0000   0.0000   0.0000   0.0000   0.0000   0.0000   0.0000
     0.0000

          k =-0.0444-0.9231-0.0817 (  6618 PWs)   bands (ev):

   -12.5400 -12.5386  -6.2028  -6.1985  -1.1904  -1.1414  -0.0354   0.0185
     1.0625   1.0720   2.0633   2.3601   3.0789   3.3510   3.9930   4.0009
     5.4630   5.7478   7.8984   8.3468  10.3911  10.4179  10.8988  11.0023
    11.3747

     occupation numbers 
     1.0000   1.0000   1.0000   1.0000   1.0000   1.0000   1.0000   1.0000
     1.0000   1.0000   1.0000   1.0000   1.0000   1.0000   1.0000   1.0000
     1.0000   1.0000   0.0000   0.0000   0.0000   0.0000   0.0000   0.0000
     0.0000

          k =-0.0333-0.9424 0.0000 (  6618 PWs)   bands (ev):

   -12.5397 -12.5383  -6.1996  -6.1944  -1.2444  -1.1482  -0.1165  -0.0057
     1.1211   1.1346   1.9608   2.6291   2.8205   3.4730   4.1275   4.1469
     5.2893   5.8603   7.6160   8.6007  10.2008  10.2037  10.8202  10.9089
    11.1084

     occupation numbers 
     1.0000   1.0000   1.0000   1.0000   1.0000   1.0000   1.0000   1.0000
     1.0000   1.0000   1.0000   1.0000   1.0000   1.0000   1.0000   1.0000
     1.0000   1.0000   0.0000   0.0000   0.0000   0.0000   0.0000   0.0000
     0.0000

          k =-0.0333-0.9424 0.0817 (  6616 PWs)   bands (ev):

   -12.5397 -12.5383  -6.1992  -6.1949  -1.2214  -1.1734  -0.0904  -0.0350
     1.1240   1.1308   2.0788   2.3670   3.0671   3.3479   4.1312   4.1419
     5.4376   5.7225   7.8186   8.2926  10.2601  10.2756  10.8673  10.9914
    11.2602

     occupation numbers 
     1.0000   1.0000   1.0000   1.0000   1.0000   1.0000   1.0000   1.0000
     1.0000   1.0000   1.0000   1.0000   1.0000   1.0000   1.0000   1.0000
     1.0000   1.0000   0.0000   0.0000   0.0000   0.0000   0.0000   0.0000
     0.0000

          k =-0.0333-0.9424-0.0817 (  6616 PWs)   bands (ev):

   -12.5397 -12.5383  -6.1992  -6.1949  -1.2214  -1.1733  -0.0904  -0.0349
     1.1240   1.1308   2.0788   2.3670   3.0672   3.3479   4.1312   4.1419
     5.4376   5.7225   7.8185   8.2926  10.2597  10.2758  10.8678  10.9913
    11.2599

     occupation numbers 
     1.0000   1.0000   1.0000   1.0000   1.0000   1.0000   1.0000   1.0000
     1.0000   1.0000   1.0000   1.0000   1.0000   1.0000   1.0000   1.0000
     1.0000   1.0000   0.0000   0.0000   0.0000   0.0000   0.0000   0.0000
     0.0000

          k =-0.0222-0.9616 0.0000 (  6615 PWs)   bands (ev):

   -12.5395 -12.5380  -6.1969  -6.1917  -1.2667  -1.1720  -0.1575  -0.0444
     1.1687   1.1778   1.9765   2.6296   2.8096   3.4725   4.2365   4.2572
     5.2700   5.8400   7.5493   8.5711  10.0764  10.1562  10.7145  10.8223
    11.1156

     occupation numbers 
     1.0000   1.0000   1.0000   1.0000   1.0000   1.0000   1.0000   1.0000
     1.0000   1.0000   1.0000   1.0000   1.0000   1.0000   1.0000   1.0000
     1.0000   1.0000   0.0000   0.0000   0.0000   0.0000   0.0000   0.0000
     0.0000

          k =-0.0222-0.9616 0.0817 (  6615 PWs)   bands (ev):

   -12.5395 -12.5381  -6.1964  -6.1922  -1.2440  -1.1967  -0.1307  -0.0742
     1.1707   1.1753   2.0911   2.3719   3.0568   3.3428   4.2411   4.2523
     5.4184   5.7030   7.7585   8.2503  10.1339  10.1751  10.8466  10.9775
    11.1870

     occupation numbers 
     1.0000   1.0000   1.0000   1.0000   1.0000   1.0000   1.0000   1.0000
     1.0000   1.0000   1.0000   1.0000   1.0000   1.0000   1.0000   1.0000
     1.0000   1.0000   0.0000   0.0000   0.0000   0.0000   0.0000   0.0000
     0.0000

          k =-0.0222-0.9616-0.0817 (  6615 PWs)   bands (ev):

   -12.5395 -12.5381  -6.1964  -6.1922  -1.2441  -1.1967  -0.1308  -0.0741
     1.1707   1.1753   2.0911   2.3718   3.0569   3.3427   4.2411   4.2522
     5.4184   5.7030   7.7585   8.2503  10.1335  10.1753  10.8470  10.9774
    11.1868

     occupation numbers 
     1.0000   1.0000   1.0000   1.0000   1.0000   1.0000   1.0000   1.0000
     1.0000   1.0000   1.0000   1.0000   1.0000   1.0000   1.0000   1.0000
     1.0000   1.0000   0.0000   0.0000   0.0000   0.0000   0.0000   0.0000
     0.0000

          k =-0.0111-0.9808 0.0000 (  6619 PWs)   bands (ev):

   -12.5394 -12.5379  -6.1952  -6.1900  -1.2802  -1.1865  -0.1825  -0.0680
     1.1985   1.2046   1.9867   2.6291   2.8026   3.4711   4.3071   4.3276
     5.2578   5.8271   7.5078   8.5508   9.9950  10.1283  10.6323  10.7865
    11.1199

     occupation numbers 
     1.0000   1.0000   1.0000   1.0000   1.0000   1.0000   1.0000   1.0000
     1.0000   1.0000   1.0000   1.0000   1.0000   1.0000   1.0000   1.0000
     1.0000   1.0000   0.0000   0.0000   0.0000   0.0000   0.0000   0.0000
     0.0000

          k =-0.0111-0.9808 0.0817 (  6614 PWs)   bands (ev):

   -12.5393 -12.5379  -6.1947  -6.1904  -1.2578  -1.2110  -0.1554  -0.0981
     1.1999   1.2031   2.0990   2.3747   3.0499   3.3387   4.3118   4.3229
     5.4063   5.6907   7.7211   8.2232  10.0521  10.1082  10.8365  10.9627
    11.1491

     occupation numbers 
     1.0000   1.0000   1.0000   1.0000   1.0000   1.0000   1.0000   1.0000
     1.0000   1.0000   1.0000   1.0000   1.0000   1.0000   1.0000   1.0000
     1.0000   1.0000   0.0000   0.0000   0.0000   0.0000   0.0000   0.0000
     0.0000

          k =-0.0111-0.9808-0.0817 (  6614 PWs)   bands (ev):

   -12.5393 -12.5379  -6.1947  -6.1904  -1.2578  -1.2110  -0.1554  -0.0981
     1.1999   1.2031   2.0990   2.3747   3.0499   3.3387   4.3118   4.3229
     5.4063   5.6907   7.7211   8.2232  10.0519  10.1083  10.8368  10.9626
    11.1490

     occupation numbers 
     1.0000   1.0000   1.0000   1.0000   1.0000   1.0000   1.0000   1.0000
     1.0000   1.0000   1.0000   1.0000   1.0000   1.0000   1.0000   1.0000
     1.0000   1.0000   0.0000   0.0000   0.0000   0.0000   0.0000   0.0000
     0.0000

          k =-0.5773 0.0000 0.0000 (  6626 PWs)   bands (ev):

   -12.5393 -12.5379  -6.1946  -6.1894  -1.2848  -1.1914  -0.1909  -0.0759
     1.2087   1.2137   1.9903   2.6288   2.8003   3.4704   4.3316   4.3518
     5.2536   5.8227   7.4937   8.5435   9.9668  10.1190  10.6035  10.7756
    11.1213

     occupation numbers 
     1.0000   1.0000   1.0000   1.0000   1.0000   1.0000   1.0000   1.0000
     1.0000   1.0000   1.0000   1.0000   1.0000   1.0000   1.0000   1.0000
     1.0000   1.0000   0.0000   0.0000   0.0000   0.0000   0.0000   0.0000
     0.0000

          k =-0.5773 0.0000 0.0817 (  6610 PWs)   bands (ev):

   -12.5393 -12.5379  -6.1941  -6.1899  -1.2624  -1.2158  -0.1637  -0.1061
     1.2098   1.2126   2.1017   2.3757   3.0474   3.3371   4.3362   4.3472
     5.4021   5.6865   7.7084   8.2138  10.0238  10.0848  10.8339  10.9560
    11.1378

     occupation numbers 
     1.0000   1.0000   1.0000   1.0000   1.0000   1.0000   1.0000   1.0000
     1.0000   1.0000   1.0000   1.0000   1.0000   1.0000   1.0000   1.0000
     1.0000   1.0000   0.0000   0.0000   0.0000   0.0000   0.0000   0.0000
     0.0000

     the Fermi energy is     6.1366 ev
     (compare with:     6.1232 eV, computed in scf)

     Writing all to output data dir ./work/Al2SO.save/
 
     init_run     :      4.36s CPU      4.41s WALL (       1 calls)
     electrons    :   2912.10s CPU   3971.28s WALL (       1 calls)

     Called by init_run:
     wfcinit      :      0.00s CPU      0.00s WALL (       1 calls)
     wfcinit:atom :      0.45s CPU      0.53s WALL (    4058 calls)
     wfcinit:wfcr :     54.16s CPU     81.34s WALL (    4058 calls)
     potinit      :      4.04s CPU      4.06s WALL (       1 calls)
     hinit0       :      0.16s CPU      0.17s WALL (       1 calls)

     Called by electrons:
     c_bands      :   2911.64s CPU   3970.78s WALL (       1 calls)
     v_of_rho     :      3.96s CPU      3.98s WALL (       1 calls)
     v_h          :      0.00s CPU      0.00s WALL (       1 calls)
     v_xc         :      3.96s CPU      3.98s WALL (       1 calls)
     newd         :      0.04s CPU      0.04s WALL (       1 calls)
     PAW_pot      :      0.08s CPU      0.09s WALL (       1 calls)
     vdW_kernel   :      3.92s CPU      3.94s WALL (       1 calls)

     Called by c_bands:
     init_us_2    :      0.93s CPU      1.08s WALL (    4058 calls)
     init_us_2:cp :      0.92s CPU      1.08s WALL (    4058 calls)
     cegterg      :   2841.08s CPU   3871.89s WALL (   22063 calls)

     Called by sum_band:

     Called by *egterg:
     cdiaghg      :    218.79s CPU    250.65s WALL (  416272 calls)
     cegterg:over :    165.72s CPU    193.74s WALL (  412214 calls)
     cegterg:upda :     58.99s CPU     65.77s WALL (  412214 calls)
     cegterg:last :    158.59s CPU    170.80s WALL (  188052 calls)
     h_psi        :   2096.93s CPU   3046.22s WALL (  438335 calls)
     s_psi        :    132.92s CPU    155.93s WALL (  438335 calls)
     g_psi        :      5.60s CPU      6.14s WALL (  412214 calls)

     Called by h_psi:
     h_psi:calbec :    235.44s CPU    333.77s WALL (  438335 calls)
     vloc_psi     :   1616.15s CPU   2409.33s WALL (  438335 calls)
     add_vuspsi   :    236.41s CPU    292.94s WALL (  438335 calls)

     General routines
     calbec       :    234.60s CPU    332.68s WALL (  438335 calls)
     fft          :      0.02s CPU      0.03s WALL (      62 calls)
     fftw         :   1560.57s CPU   2331.48s WALL (10026678 calls)
     davcio       :      0.64s CPU      0.91s WALL (    8116 calls)
 
     Parallel routines

     PAW routines
     PAW_pot      :      0.08s CPU      0.09s WALL (       1 calls)
 
     PWSCF        :  48m48.36s CPU      1h 6m WALL

 
   This run was terminated on:  10: 7: 9  13Jun2023            

=------------------------------------------------------------------------------=
   JOB DONE.
=------------------------------------------------------------------------------=
