
     Program PWSCF v.7.1 starts on 13Jun2023 at  8:57:51 

     This program is part of the open-source Quantum ESPRESSO suite
     for quantum simulation of materials; please cite
         "P. Giannozzi et al., J. Phys.:Condens. Matter 21 395502 (2009);
         "P. Giannozzi et al., J. Phys.:Condens. Matter 29 465901 (2017);
         "P. Giannozzi et al., J. Chem. Phys. 152 154105 (2020);
          URL http://www.quantum-espresso.org", 
     in publications or presentations arising from this work. More details at
     http://www.quantum-espresso.org/quote

     Parallel version (MPI), running on    18 processors

     MPI processes distributed on     1 nodes
     79796 MiB available memory on the printing compute node when the environment starts
 
     Waiting for input...
     Reading input from standard input

     Current dimensions of program PWSCF are:
     Max number of different atomic species (ntypx) = 10
     Max number of k-points (npk) =  40000
     Max angular momentum in pseudopotentials (lmaxx) =  4
     Message from routine volume:
     axis vectors are left-handed
     file Al.pbe-n-kjpaw_psl.1.0.0.UPF: wavefunction(s)  3S 3P renormalized
     file O.pbe-n-kjpaw_psl.1.0.0.UPF: wavefunction(s)  2S 2P renormalized
     file S.pbe-n-kjpaw_psl.1.0.0.UPF: wavefunction(s)  3S 3P renormalized

     IMPORTANT: XC functional enforced from input :
     Exchange-correlation= VDW-DF2-B86R
                           (   1   4  26   0   2   0   0)
     Any further DFT definition will be discarded
     Please, verify this is what you really want

     Message from routine setup:
     using ibrav=0 with symmetry is DISCOURAGED, use correct ibrav instead
 
     R & G space division:  proc/nbgrp/npool/nimage =      18
     Subspace diagonalization in iterative solution of the eigenvalue problem:
     a serial algorithm will be used

 
     Parallelization info
     --------------------
     sticks:   dense  smooth     PW     G-vecs:    dense   smooth      PW
     Min          36      36     11                 2944     2944     515
     Max          37      37     12                 2950     2950     532
     Sum         649     649    199                53045    53045    9351
 
     Using Slab Decomposition
 


     bravais-lattice index     =            0
     lattice parameter (alat)  =       6.2033  a.u.
     unit-cell volume          =     843.0652 (a.u.)^3
     number of atoms/cell      =            8
     number of atomic types    =            3
     number of electrons       =        36.00
     number of Kohn-Sham states=           25
     kinetic-energy cutoff     =      60.0000  Ry
     charge density cutoff     =     240.0000  Ry
     scf convergence threshold =      1.0E-08
     mixing beta               =       0.5000
     number of iterations used =            8  plain     mixing
     Exchange-correlation= VDW-DF2-B86R
                           (   1   4  26   0   2   0   0)

     celldm(1)=   6.203328  celldm(2)=   0.000000  celldm(3)=   0.000000
     celldm(4)=   0.000000  celldm(5)=   0.000000  celldm(6)=   0.000000

     crystal axes: (cart. coord. in units of alat)
               a(1) = (   0.866041   0.499973   0.000003 )  
               a(2) = (   0.866041  -0.499973   0.000003 )  
               a(3) = (   0.000010   0.000000   4.078231 )  

     reciprocal axes: (cart. coord. in units 2 pi/alat)
               b(1) = (  0.577340  1.000053 -0.000001 )  
               b(2) = (  0.577340 -1.000053 -0.000001 )  
               b(3) = ( -0.000001  0.000000  0.245204 )  


     PseudoPot. # 1 for Al read from file:
     /home/mainadmin/research/danu/pseudo/Al.pbe-n-kjpaw_psl.1.0.0.UPF
     MD5 check sum: 502b6b27b9c6270cab5dd1084b96fa6d
     Pseudo is Projector augmented-wave + core cor, Zval =  3.0
     Generated using &quot;atomic&quot; code by A. Dal Corso  v.6.3
     Shape of augmentation charge: PSQ
     Using radial grid of 1135 points,  6 beta functions with: 
                l(1) =   0
                l(2) =   0
                l(3) =   1
                l(4) =   1
                l(5) =   2
                l(6) =   2
     Q(r) pseudized with 0 coefficients 


     PseudoPot. # 2 for O  read from file:
     /home/mainadmin/research/danu/pseudo/O.pbe-n-kjpaw_psl.1.0.0.UPF
     MD5 check sum: e99d9cef9b487d1ca56f5b95ecd0fd7a
     Pseudo is Projector augmented-wave + core cor, Zval =  6.0
     Generated using &quot;atomic&quot; code by A. Dal Corso  v.6.3
     Shape of augmentation charge: PSQ
     Using radial grid of 1095 points,  4 beta functions with: 
                l(1) =   0
                l(2) =   0
                l(3) =   1
                l(4) =   1
     Q(r) pseudized with 0 coefficients 


     PseudoPot. # 3 for S  read from file:
     /home/mainadmin/research/danu/pseudo/S.pbe-n-kjpaw_psl.1.0.0.UPF
     MD5 check sum: fb45dfebcf3e72a4e1bd4a866ec2e262
     Pseudo is Projector augmented-wave + core cor, Zval =  6.0
     Generated using &quot;atomic&quot; code by A. Dal Corso  v.6.3
     Shape of augmentation charge: PSQ
     Using radial grid of 1151 points,  6 beta functions with: 
                l(1) =   0
                l(2) =   0
                l(3) =   1
                l(4) =   1
                l(5) =   2
                l(6) =   2
     Q(r) pseudized with 0 coefficients 


     atomic species   valence    mass     pseudopotential
        Al             3.00    26.98100     Al( 1.00)
        O              6.00    15.99900     O ( 1.00)
        S              6.00    32.06500     S ( 1.00)

      2 Sym. Ops. (no inversion) found



   Cartesian axes

     site n.     atom                  positions (alat units)
         1           O   tau(   1) = (   1.1547210   0.0000000   0.0000036  )
         2           Al  tau(   2) = (   0.5773605   0.0000000   0.0888171  )
         3           Al  tau(   3) = (   0.5773632   0.0000000   0.8930581  )
         4           S   tau(   4) = (   1.1547248   0.0000000   1.2775636  )
         5           O   tau(   5) = (   0.5773646   0.0000000   2.0391660  )
         6           Al  tau(   6) = (   1.1547263   0.0000000   2.1279808  )
         7           Al  tau(   7) = (   1.1547286   0.0000000   2.9323458  )
         8           S   tau(   8) = (   0.5773686   0.0000000   3.3165754  )

     number of k points=   140

     Number of k-points >= 100: set verbosity='high' to print them.

     Dense  grid:    53045 G-vectors     FFT dimensions: (  32,  32, 125)

     Estimated max dynamical RAM per process >      34.60 MB

     Estimated total dynamical RAM >     622.76 MB

     Check: negative core charge=   -0.000003

     Initial potential from superposition of free atoms

     starting charge      35.9908, renormalised to      36.0000


     %%%%%%%%%%%%%%%%%%%%%%%%%%%%%%%%%%%%%%%%%%%%%%%%%%%%%%%%%%%%%%%%%%%%%%%%
     %                                                                      %
     % You are using vdW-DF, which was implemented by the Thonhauser group. %
     % Please cite the following two papers that made this development      %
     % possible and the two reviews that describe the various versions:     %
     %                                                                      %
     %   T. Thonhauser et al., PRL 115, 136402 (2015).                      %
     %   T. Thonhauser et al., PRB 76, 125112 (2007).                       %
     %   K. Berland et al., Rep. Prog. Phys. 78, 066501 (2015).             %
     %   D.C. Langreth et al., J. Phys.: Condens. Matter 21, 084203 (2009). %
     %                                                                      %
     % If you are calculating stress with vdW-DF, please also cite:         %
     %                                                                      %
     %   R. Sabatini et al., J. Phys.: Condens. Matter 24, 424209 (2012).   %
     %                                                                      %
     %%%%%%%%%%%%%%%%%%%%%%%%%%%%%%%%%%%%%%%%%%%%%%%%%%%%%%%%%%%%%%%%%%%%%%%%

     %%%%%%%%%%%%%%%%%%%%%%%%%%%%%%%%%%%%%%%%%%%%%%%%%%%%%%%%%%%%%%%%%%%%%%%%
     %                                                                      %
     %  vdW-DF NEWS:                                                        %
     %                                                                      %
     %  * vdW-DF3 is now available. DOI: 10.1021/acs.jctc.0c00471           %
     %    use with input_dft = 'vdW-DF3-opt1' or 'vdW-DF3-opt2'             %
     %                                                                      %
     %  * Unscreened and range-separated vdW-DF hybrid functionals          %
     %    DOI: 10.1063/1.4986522 and 10.1088/1361-648X/ac2ad2               %
     %    use with input_dft = 'vdW-DF-cx0' (etc) and 'vdW-DF-ahcx'         %
     %                                                                      %
     %%%%%%%%%%%%%%%%%%%%%%%%%%%%%%%%%%%%%%%%%%%%%%%%%%%%%%%%%%%%%%%%%%%%%%%%


     Starting wfcs are   32 randomized atomic wfcs
     Checking if some PAW data can be deallocated... 

     total cpu time spent up to now is        7.3 secs

     Self-consistent Calculation

     iteration #  1     ecut=    60.00 Ry     beta= 0.50
     Davidson diagonalization with overlap
     ethr =  1.00E-02,  avg # of iterations =  5.0

     total cpu time spent up to now is       17.0 secs

     total energy              =    -372.69266962 Ry
     estimated scf accuracy    <       1.25663331 Ry

     iteration #  2     ecut=    60.00 Ry     beta= 0.50
     Davidson diagonalization with overlap
     ethr =  3.49E-03,  avg # of iterations =  4.5

     total cpu time spent up to now is       25.9 secs

     total energy              =    -373.06353832 Ry
     estimated scf accuracy    <       0.65602951 Ry

     iteration #  3     ecut=    60.00 Ry     beta= 0.50
     Davidson diagonalization with overlap
     ethr =  1.82E-03,  avg # of iterations =  1.8

     total cpu time spent up to now is       32.6 secs

     total energy              =    -373.17582365 Ry
     estimated scf accuracy    <       0.04462871 Ry

     iteration #  4     ecut=    60.00 Ry     beta= 0.50
     Davidson diagonalization with overlap
     c_bands:  1 eigenvalues not converged
     c_bands:  1 eigenvalues not converged
     c_bands:  2 eigenvalues not converged
     c_bands:  2 eigenvalues not converged
     c_bands:  2 eigenvalues not converged
     c_bands:  2 eigenvalues not converged
     ethr =  1.24E-04,  avg # of iterations =  8.6

     total cpu time spent up to now is       45.5 secs

     total energy              =    -373.22020089 Ry
     estimated scf accuracy    <       0.01551438 Ry

     iteration #  5     ecut=    60.00 Ry     beta= 0.50
     Davidson diagonalization with overlap
     c_bands:  1 eigenvalues not converged
     c_bands:  1 eigenvalues not converged
     c_bands:  1 eigenvalues not converged
     c_bands:  2 eigenvalues not converged
     c_bands:  1 eigenvalues not converged
     c_bands:  1 eigenvalues not converged
     ethr =  4.31E-05,  avg # of iterations =  7.0

     total cpu time spent up to now is       54.2 secs

     total energy              =    -373.22168966 Ry
     estimated scf accuracy    <       0.00210584 Ry

     iteration #  6     ecut=    60.00 Ry     beta= 0.50
     Davidson diagonalization with overlap
     c_bands:  1 eigenvalues not converged
     c_bands:  3 eigenvalues not converged
     c_bands:  1 eigenvalues not converged
     c_bands:  1 eigenvalues not converged
     c_bands:  1 eigenvalues not converged
     c_bands:  1 eigenvalues not converged
     c_bands:  1 eigenvalues not converged
     c_bands:  1 eigenvalues not converged
     c_bands:  2 eigenvalues not converged
     c_bands:  2 eigenvalues not converged
     c_bands:  1 eigenvalues not converged
     c_bands:  1 eigenvalues not converged
     c_bands:  1 eigenvalues not converged
     c_bands:  1 eigenvalues not converged
     c_bands:  1 eigenvalues not converged
     c_bands:  1 eigenvalues not converged
     c_bands:  1 eigenvalues not converged
     c_bands:  1 eigenvalues not converged
     c_bands:  1 eigenvalues not converged
     c_bands:  1 eigenvalues not converged
     c_bands:  1 eigenvalues not converged
     ethr =  5.85E-06,  avg # of iterations = 11.7

     total cpu time spent up to now is       67.2 secs

     total energy              =    -373.22241984 Ry
     estimated scf accuracy    <       0.00347851 Ry

     iteration #  7     ecut=    60.00 Ry     beta= 0.50
     Davidson diagonalization with overlap
     c_bands:  1 eigenvalues not converged
     c_bands:  1 eigenvalues not converged
     c_bands:  1 eigenvalues not converged
     ethr =  5.85E-06,  avg # of iterations =  4.4

     total cpu time spent up to now is       75.2 secs

     total energy              =    -373.22286227 Ry
     estimated scf accuracy    <       0.00034508 Ry

     iteration #  8     ecut=    60.00 Ry     beta= 0.50
     Davidson diagonalization with overlap
     c_bands:  1 eigenvalues not converged
     ethr =  9.59E-07,  avg # of iterations =  4.8

     total cpu time spent up to now is       83.1 secs

     total energy              =    -373.22289574 Ry
     estimated scf accuracy    <       0.00003018 Ry

     iteration #  9     ecut=    60.00 Ry     beta= 0.50
     Davidson diagonalization with overlap
     ethr =  8.38E-08,  avg # of iterations =  4.8

     total cpu time spent up to now is       94.0 secs

     total energy              =    -373.22292011 Ry
     estimated scf accuracy    <       0.00002606 Ry

     iteration # 10     ecut=    60.00 Ry     beta= 0.50
     Davidson diagonalization with overlap
     ethr =  7.24E-08,  avg # of iterations =  1.3

     total cpu time spent up to now is      100.5 secs

     total energy              =    -373.22291640 Ry
     estimated scf accuracy    <       0.00001137 Ry

     iteration # 11     ecut=    60.00 Ry     beta= 0.50
     Davidson diagonalization with overlap
     ethr =  3.16E-08,  avg # of iterations =  2.4

     total cpu time spent up to now is      108.1 secs

     total energy              =    -373.22291824 Ry
     estimated scf accuracy    <       0.00000048 Ry

     iteration # 12     ecut=    60.00 Ry     beta= 0.50
     Davidson diagonalization with overlap
     ethr =  1.34E-09,  avg # of iterations =  6.3

     total cpu time spent up to now is      121.4 secs

     total energy              =    -373.22291923 Ry
     estimated scf accuracy    <       0.00000180 Ry

     iteration # 13     ecut=    60.00 Ry     beta= 0.50
     Davidson diagonalization with overlap
     ethr =  1.34E-09,  avg # of iterations =  2.0

     total cpu time spent up to now is      128.7 secs

     total energy              =    -373.22291913 Ry
     estimated scf accuracy    <       0.00000048 Ry

     iteration # 14     ecut=    60.00 Ry     beta= 0.50
     Davidson diagonalization with overlap
     ethr =  1.32E-09,  avg # of iterations =  4.3

     total cpu time spent up to now is      138.3 secs

     total energy              =    -373.22291932 Ry
     estimated scf accuracy    <       0.00000004 Ry

     iteration # 15     ecut=    60.00 Ry     beta= 0.50
     Davidson diagonalization with overlap
     ethr =  1.24E-10,  avg # of iterations =  2.4

     total cpu time spent up to now is      145.6 secs

     End of self-consistent calculation

     Number of k-points >= 100: set verbosity='high' to print the bands.

     highest occupied, lowest unoccupied level (ev):     6.1232    7.3715

!    total energy              =    -373.22291932 Ry
     total all-electron energy =     -3839.690062 Ry
     estimated scf accuracy    <          6.1E-09 Ry

     The total energy is the sum of the following terms:
     one-electron contribution =     -26.13496984 Ry
     hartree contribution      =      34.04096861 Ry
     xc contribution           =     -35.97710973 Ry
     ewald contribution        =     -96.41364777 Ry
     one-center paw contrib.   =    -248.73816058 Ry

     convergence has been achieved in  15 iterations

     Writing all to output data dir ./work/Al2SO.save/
 
     init_run     :      6.18s CPU      7.18s WALL (       1 calls)
     electrons    :    101.64s CPU    138.25s WALL (       1 calls)

     Called by init_run:
     wfcinit      :      1.92s CPU      2.86s WALL (       1 calls)
     potinit      :      4.05s CPU      4.09s WALL (       1 calls)
     hinit0       :      0.16s CPU      0.17s WALL (       1 calls)

     Called by electrons:
     c_bands      :     89.41s CPU    120.49s WALL (      15 calls)
     sum_band     :     10.05s CPU     15.36s WALL (      15 calls)
     v_of_rho     :      4.38s CPU      4.49s WALL (      16 calls)
     newd         :      0.53s CPU      0.56s WALL (      16 calls)
     PAW_pot      :      1.25s CPU      1.37s WALL (      16 calls)
     mix_rho      :      0.02s CPU      0.03s WALL (      15 calls)
     vdW_kernel   :      3.90s CPU      3.91s WALL (       1 calls)

     Called by c_bands:
     init_us_2    :      0.92s CPU      1.12s WALL (    4340 calls)
     init_us_2:cp :      0.91s CPU      1.11s WALL (    4340 calls)
     cegterg      :     81.91s CPU    112.75s WALL (    2100 calls)

     Called by *egterg:
     cdiaghg      :      5.76s CPU      6.57s WALL (   12078 calls)
     h_psi        :     63.57s CPU     92.36s WALL (   12218 calls)
     s_psi        :      3.62s CPU      4.37s WALL (   12218 calls)
     g_psi        :      0.14s CPU      0.16s WALL (    9978 calls)

     Called by h_psi:
     h_psi:calbec :      6.58s CPU      9.53s WALL (   12218 calls)
     vloc_psi     :     49.97s CPU     73.97s WALL (   12218 calls)
     add_vuspsi   :      6.73s CPU      8.52s WALL (   12218 calls)

     General routines
     calbec       :      7.63s CPU     11.15s WALL (   14318 calls)
     fft          :      0.23s CPU      0.30s WALL (     976 calls)
     ffts         :      0.00s CPU      0.01s WALL (      15 calls)
     fftw         :     55.67s CPU     83.25s WALL (  362724 calls)
 
     Parallel routines
 
     PWSCF        :   1m48.43s CPU   2m26.69s WALL

 
   This run was terminated on:   9: 0:18  13Jun2023            

=------------------------------------------------------------------------------=
   JOB DONE.
=------------------------------------------------------------------------------=
