
     Program PWSCF v.7.1 starts on  7Mar2023 at 14:32:39 

     This program is part of the open-source Quantum ESPRESSO suite
     for quantum simulation of materials; please cite
         "P. Giannozzi et al., J. Phys.:Condens. Matter 21 395502 (2009);
         "P. Giannozzi et al., J. Phys.:Condens. Matter 29 465901 (2017);
         "P. Giannozzi et al., J. Chem. Phys. 152 154105 (2020);
          URL http://www.quantum-espresso.org", 
     in publications or presentations arising from this work. More details at
     http://www.quantum-espresso.org/quote

     Parallel version (MPI), running on    22 processors

     MPI processes distributed on     1 nodes
     96330 MiB available memory on the printing compute node when the environment starts
 
     Waiting for input...
     Reading input from standard input

     Current dimensions of program PWSCF are:
     Max number of different atomic species (ntypx) = 10
     Max number of k-points (npk) =  40000
     Max angular momentum in pseudopotentials (lmaxx) =  4
     Message from routine volume:
     axis vectors are left-handed
     file Al.pbe-n-kjpaw_psl.1.0.0.UPF: wavefunction(s)  3S 3P renormalized
     file O.pbe-n-kjpaw_psl.1.0.0.UPF: wavefunction(s)  2S 2P renormalized
     file S.pbe-n-kjpaw_psl.1.0.0.UPF: wavefunction(s)  3S 3P renormalized
     Message from routine setup:
     using ibrav=0 with symmetry is DISCOURAGED, use correct ibrav instead
 
     R & G space division:  proc/nbgrp/npool/nimage =      22
     Subspace diagonalization in iterative solution of the eigenvalue problem:
     a serial algorithm will be used

 
     Parallelization info
     --------------------
     sticks:   dense  smooth     PW     G-vecs:    dense   smooth      PW
     Min          28      28      9                 2898     2898     511
     Max          29      29     10                 2910     2910     526
     Sum         625     625    199                63851    63851   11397
 
     Using Slab Decomposition
 


     bravais-lattice index     =            0
     lattice parameter (alat)  =       6.1332  a.u.
     unit-cell volume          =    1018.0664 (a.u.)^3
     number of atoms/cell      =            8
     number of atomic types    =            3
     number of electrons       =        36.00
     number of Kohn-Sham states=           72
     kinetic-energy cutoff     =      60.0000  Ry
     charge density cutoff     =     240.0000  Ry
     scf convergence threshold =      1.0E-08
     mixing beta               =       0.5000
     number of iterations used =            8  plain     mixing
     Exchange-correlation= SLA  PW   PBX  PBC
                           (   1   4   3   4   0   0   0)

     celldm(1)=   6.133220  celldm(2)=   0.000000  celldm(3)=   0.000000
     celldm(4)=   0.000000  celldm(5)=   0.000000  celldm(6)=   0.000000

     crystal axes: (cart. coord. in units of alat)
               a(1) = (   0.866047   0.499963   0.000031 )  
               a(2) = (   0.866047  -0.499963   0.000031 )  
               a(3) = (   0.000178   0.000000   5.095670 )  

     reciprocal axes: (cart. coord. in units 2 pi/alat)
               b(1) = (  0.577336  1.000074 -0.000020 )  
               b(2) = (  0.577336 -1.000074 -0.000020 )  
               b(3) = ( -0.000007  0.000000  0.196245 )  


     PseudoPot. # 1 for Al read from file:
     /home/mainadmin/research/danu/pseudo/Al.pbe-n-kjpaw_psl.1.0.0.UPF
     MD5 check sum: 502b6b27b9c6270cab5dd1084b96fa6d
     Pseudo is Projector augmented-wave + core cor, Zval =  3.0
     Generated using &quot;atomic&quot; code by A. Dal Corso  v.6.3
     Shape of augmentation charge: PSQ
     Using radial grid of 1135 points,  6 beta functions with: 
                l(1) =   0
                l(2) =   0
                l(3) =   1
                l(4) =   1
                l(5) =   2
                l(6) =   2
     Q(r) pseudized with 0 coefficients 


     PseudoPot. # 2 for O  read from file:
     /home/mainadmin/research/danu/pseudo/O.pbe-n-kjpaw_psl.1.0.0.UPF
     MD5 check sum: e99d9cef9b487d1ca56f5b95ecd0fd7a
     Pseudo is Projector augmented-wave + core cor, Zval =  6.0
     Generated using &quot;atomic&quot; code by A. Dal Corso  v.6.3
     Shape of augmentation charge: PSQ
     Using radial grid of 1095 points,  4 beta functions with: 
                l(1) =   0
                l(2) =   0
                l(3) =   1
                l(4) =   1
     Q(r) pseudized with 0 coefficients 


     PseudoPot. # 3 for S  read from file:
     /home/mainadmin/research/danu/pseudo/S.pbe-n-kjpaw_psl.1.0.0.UPF
     MD5 check sum: fb45dfebcf3e72a4e1bd4a866ec2e262
     Pseudo is Projector augmented-wave + core cor, Zval =  6.0
     Generated using &quot;atomic&quot; code by A. Dal Corso  v.6.3
     Shape of augmentation charge: PSQ
     Using radial grid of 1151 points,  6 beta functions with: 
                l(1) =   0
                l(2) =   0
                l(3) =   1
                l(4) =   1
                l(5) =   2
                l(6) =   2
     Q(r) pseudized with 0 coefficients 


     atomic species   valence    mass     pseudopotential
        Al             3.00    26.98100     Al( 1.00)
        O              6.00    15.99900     O ( 1.00)
        S              6.00    32.06500     S ( 1.00)

      2 Sym. Ops. (no inversion) found



   Cartesian axes

     site n.     atom                  positions (alat units)
         1           O   tau(   1) = (   1.1547291   0.0000000   0.0000407  )
         2           Al  tau(   2) = (   0.5773698   0.0000000   0.1593190  )
         3           Al  tau(   3) = (   0.5773982   0.0000000   0.9664330  )
         4           S   tau(   4) = (   1.1547762   0.0000000   1.3471932  )
         5           O   tau(   5) = (   1.1548186   0.0000000   2.5574739  )
         6           Al  tau(   6) = (   0.5774595   0.0000000   2.7158078  )
         7           Al  tau(   7) = (   0.5774876   0.0000000   3.5202442  )
         8           S   tau(   8) = (   1.1548655   0.0000000   3.9003446  )

     number of k points=   140

     Number of k-points >= 100: set verbosity='high' to print them.

     Dense  grid:    63851 G-vectors     FFT dimensions: (  32,  32, 160)

     Estimated max dynamical RAM per process >      71.01 MB

     Estimated total dynamical RAM >       1.53 GB

     Check: negative core charge=   -0.000003

     Initial potential from superposition of free atoms

     starting charge      35.9908, renormalised to      36.0000
     Starting wfcs are   32 randomized atomic wfcs +   40 random wfcs
     Checking if some PAW data can be deallocated... 

     total cpu time spent up to now is        8.9 secs

     Self-consistent Calculation

     iteration #  1     ecut=    60.00 Ry     beta= 0.50
     Davidson diagonalization with overlap
     ethr =  1.00E-02,  avg # of iterations =  8.1

     total cpu time spent up to now is       73.1 secs

     total energy              =    -374.09762673 Ry
     estimated scf accuracy    <       1.11548247 Ry

     iteration #  2     ecut=    60.00 Ry     beta= 0.50
     Davidson diagonalization with overlap
     ethr =  3.10E-03,  avg # of iterations =  1.4

     total cpu time spent up to now is       96.7 secs

     total energy              =    -374.32380783 Ry
     estimated scf accuracy    <       0.47871697 Ry

     iteration #  3     ecut=    60.00 Ry     beta= 0.50
     Davidson diagonalization with overlap
     ethr =  1.33E-03,  avg # of iterations =  1.9

     total cpu time spent up to now is      121.4 secs

     total energy              =    -374.43691984 Ry
     estimated scf accuracy    <       0.04638917 Ry

     iteration #  4     ecut=    60.00 Ry     beta= 0.50
     Davidson diagonalization with overlap
     ethr =  1.29E-04,  avg # of iterations =  7.2

     total cpu time spent up to now is      153.6 secs

     total energy              =    -374.44845165 Ry
     estimated scf accuracy    <       0.00738191 Ry

     iteration #  5     ecut=    60.00 Ry     beta= 0.50
     Davidson diagonalization with overlap
     ethr =  2.05E-05,  avg # of iterations =  6.8

     total cpu time spent up to now is      186.0 secs

     total energy              =    -374.44927555 Ry
     estimated scf accuracy    <       0.00309849 Ry

     iteration #  6     ecut=    60.00 Ry     beta= 0.50
     Davidson diagonalization with overlap
     ethr =  8.61E-06,  avg # of iterations =  3.5

     total cpu time spent up to now is      213.9 secs

     total energy              =    -374.44972217 Ry
     estimated scf accuracy    <       0.00188053 Ry

     iteration #  7     ecut=    60.00 Ry     beta= 0.50
     Davidson diagonalization with overlap
     ethr =  5.22E-06,  avg # of iterations =  2.5

     total cpu time spent up to now is      239.8 secs

     total energy              =    -374.45003965 Ry
     estimated scf accuracy    <       0.00033399 Ry

     iteration #  8     ecut=    60.00 Ry     beta= 0.50
     Davidson diagonalization with overlap
     c_bands:  1 eigenvalues not converged
     ethr =  9.28E-07,  avg # of iterations =  2.9

     total cpu time spent up to now is      265.0 secs

     total energy              =    -374.45008620 Ry
     estimated scf accuracy    <       0.00000478 Ry

     iteration #  9     ecut=    60.00 Ry     beta= 0.50
     Davidson diagonalization with overlap
     c_bands:  1 eigenvalues not converged
     ethr =  1.33E-08,  avg # of iterations =  2.2

     total cpu time spent up to now is      290.7 secs

     total energy              =    -374.45008706 Ry
     estimated scf accuracy    <       0.00000028 Ry

     iteration # 10     ecut=    60.00 Ry     beta= 0.50
     Davidson diagonalization with overlap
     ethr =  7.76E-10,  avg # of iterations =  4.1

     total cpu time spent up to now is      319.0 secs

     total energy              =    -374.45008718 Ry
     estimated scf accuracy    <       0.00000009 Ry

     iteration # 11     ecut=    60.00 Ry     beta= 0.50
     Davidson diagonalization with overlap
     ethr =  2.55E-10,  avg # of iterations =  1.7

     total cpu time spent up to now is      343.1 secs

     total energy              =    -374.45008721 Ry
     estimated scf accuracy    <       0.00000001 Ry

     iteration # 12     ecut=    60.00 Ry     beta= 0.50
     Davidson diagonalization with overlap
     ethr =  3.67E-11,  avg # of iterations =  2.6

     total cpu time spent up to now is      369.1 secs

     End of self-consistent calculation

     Number of k-points >= 100: set verbosity='high' to print the bands.

     highest occupied, lowest unoccupied level (ev):     4.2253    5.5884

!    total energy              =    -374.45008721 Ry
     total all-electron energy =     -3840.917230 Ry
     estimated scf accuracy    <          1.1E-09 Ry

     The total energy is the sum of the following terms:
     one-electron contribution =     -44.29422994 Ry
     hartree contribution      =      40.48919760 Ry
     xc contribution           =     -35.67100636 Ry
     ewald contribution        =     -84.81428927 Ry
     one-center paw contrib.   =    -250.15975924 Ry

     convergence has been achieved in  12 iterations

     Writing all to output data dir ./work/Al2SO.save/
 
     init_run     :      5.91s CPU      8.70s WALL (       1 calls)
     electrons    :    266.42s CPU    360.23s WALL (       1 calls)

     Called by init_run:
     wfcinit      :      5.54s CPU      8.29s WALL (       1 calls)
     potinit      :      0.16s CPU      0.17s WALL (       1 calls)
     hinit0       :      0.15s CPU      0.17s WALL (       1 calls)

     Called by electrons:
     c_bands      :    237.19s CPU    315.40s WALL (      12 calls)
     sum_band     :     27.58s CPU     42.97s WALL (      12 calls)
     v_of_rho     :      0.06s CPU      0.07s WALL (      13 calls)
     newd         :      0.54s CPU      0.57s WALL (      13 calls)
     PAW_pot      :      1.15s CPU      1.34s WALL (      13 calls)
     mix_rho      :      0.02s CPU      0.03s WALL (      12 calls)

     Called by c_bands:
     init_us_2    :      2.61s CPU      2.81s WALL (    3500 calls)
     init_us_2:cp :      2.60s CPU      2.80s WALL (    3500 calls)
     cegterg      :    228.10s CPU    306.17s WALL (    1680 calls)

     Called by *egterg:
     cdiaghg      :     34.30s CPU     35.35s WALL (    7950 calls)
     h_psi        :    131.11s CPU    206.74s WALL (    8090 calls)
     s_psi        :      9.41s CPU      9.89s WALL (    8090 calls)
     g_psi        :      0.24s CPU      0.25s WALL (    6270 calls)

     Called by h_psi:
     h_psi:calbec :     14.79s CPU     19.12s WALL (    8090 calls)
     vloc_psi     :    102.29s CPU    172.10s WALL (    8090 calls)
     add_vuspsi   :     12.21s CPU     13.66s WALL (    8090 calls)

     General routines
     calbec       :     18.90s CPU     24.54s WALL (    9770 calls)
     fft          :      0.05s CPU      0.07s WALL (     143 calls)
     ffts         :      0.00s CPU      0.01s WALL (      12 calls)
     fftw         :    118.29s CPU    199.23s WALL (  725438 calls)
 
     Parallel routines
 
     PWSCF        :   4m33.78s CPU   6m12.81s WALL

 
   This run was terminated on:  14:38:51   7Mar2023            

=------------------------------------------------------------------------------=
   JOB DONE.
=------------------------------------------------------------------------------=
