
     Program BANDS v.7.0 starts on 17Jun2023 at 15:19:54 

     This program is part of the open-source Quantum ESPRESSO suite
     for quantum simulation of materials; please cite
         "P. Giannozzi et al., J. Phys.:Condens. Matter 21 395502 (2009);
         "P. Giannozzi et al., J. Phys.:Condens. Matter 29 465901 (2017);
         "P. Giannozzi et al., J. Chem. Phys. 152 154105 (2020);
          URL http://www.quantum-espresso.org", 
     in publications or presentations arising from this work. More details at
     http://www.quantum-espresso.org/quote

     Parallel version (MPI), running on    16 processors

     MPI processes distributed on     1 nodes
     R & G space division:  proc/nbgrp/npool/nimage =      16
     2958 MiB available memory on the printing compute node when the environment starts
 

     Reading xml data from directory:

     ./work/Al2S2.save/
     Message from routine volume:
     axis vectors are left-handed
     file Al.pbe-n-kjpaw_psl.1.0.0.UPF: wavefunction(s)  3S 3P renormalized
     file S.pbe-n-kjpaw_psl.1.0.0.UPF: wavefunction(s)  3S 3P renormalized

     IMPORTANT: XC functional enforced from input :
     Exchange-correlation= PBE
                           (   1   4   3   4   0   0   0)
     Any further DFT definition will be discarded
     Please, verify this is what you really want

 
     Parallelization info
     --------------------
     sticks:   dense  smooth     PW     G-vecs:    dense   smooth      PW
     Min          39      39     11                 4521     4521     717
     Max          40      40     12                 4527     4527     734
     Sum         625     625    187                72391    72391   11673
 
     Using Slab Decomposition
 
     Reading collected, re-writing distributed wavefunctions
     high-symmetry point:  0.0000 0.0000 0.0000   x coordinate   0.0000
     high-symmetry point:  0.5775 0.3325 0.0000   x coordinate   0.6664
     high-symmetry point:  0.5775 0.0000 0.0000   x coordinate   0.9990
     high-symmetry point:  0.0000 0.0000 0.0000   x coordinate   1.5765

     Plottable bands (eV) written to file AB.bands.gnu
     Bands written to file AB.bands

 **************************************************************************

                    xk=(   0.00000,   0.00000,   0.00000  )

     point group C_s (m)    
     there are  2 classes
     the character table:

       E     s    
A'     1.00  1.00
A''    1.00 -1.00

     the symmetry operations in each class and the name of the first element:

     E        1
                                                                 
     s        2
                                                                 

     Band symmetry, C_s (m)     point group:

     e(  1 -  1) =     -9.85336  eV     1   --> A'             
     e(  2 -  2) =     -9.83601  eV     1   --> A'             
     e(  3 -  3) =     -9.75334  eV     1   --> A'             
     e(  4 -  4) =     -9.73468  eV     1   --> A'             
     e(  5 -  5) =     -2.30570  eV     1   --> A'             
     e(  6 -  6) =     -2.22284  eV     1   --> A'             
     e(  7 -  7) =     -0.32790  eV     1   --> A'             
     e(  8 -  8) =     -0.06460  eV     1   --> A'             
     e(  9 -  9) =      2.62572  eV     1   --> A'             
     e( 10 - 10) =      3.04230  eV     1   --> A'             
     e( 11 - 11) =      4.04259  eV     1   --> A''            
     e( 12 - 12) =      4.04673  eV     1   --> A''            
     e( 13 - 13) =      4.05276  eV     1   --> A'             
     e( 14 - 14) =      4.05689  eV     1   --> A'             
     e( 15 - 15) =      4.07074  eV     1   --> A''            
     e( 16 - 16) =      4.07497  eV     1   --> A''            
     e( 17 - 17) =      4.08077  eV     1   --> A'             
     e( 18 - 18) =      4.08500  eV     1   --> A'             
     e( 19 - 19) =      7.59472  eV     1   --> A'             
     e( 20 - 20) =      8.55622  eV     1   --> A'             
     e( 21 - 21) =     10.42227  eV     1   --> A'             
     e( 22 - 22) =     10.43701  eV     1   --> A'             
     e( 23 - 23) =     10.58227  eV     1   --> A'             
     e( 24 - 24) =     10.64254  eV     1   --> A'             
     e( 25 - 25) =     10.66958  eV     1   --> A'             
     e( 26 - 26) =     11.36546  eV     1   --> A''            
     e( 27 - 27) =     11.37016  eV     1   --> A''            
     e( 28 - 28) =     11.38804  eV     1   --> A'             
     e( 29 - 29) =     11.39275  eV     1   --> A'             
     e( 30 - 30) =     11.88776  eV     1   --> A''            
     e( 31 - 31) =     11.89469  eV     1   --> A''            
     e( 32 - 32) =     11.91102  eV     1   --> A'             
     e( 33 - 33) =     11.91795  eV     1   --> A'             
     e( 34 - 34) =     12.33802  eV     1   --> A'             
     e( 35 - 35) =     14.02839  eV     1   --> A'             
     e( 36 - 36) =     14.36857  eV     1   --> A''            
     e( 37 - 37) =     14.38915  eV     1   --> A'             
     e( 38 - 38) =     14.39312  eV     1   --> A''            
     e( 39 - 39) =     14.41364  eV     1   --> A'             
     e( 40 - 40) =     14.90278  eV     1   --> A'             
     e( 41 - 41) =     15.79285  eV     1   --> A''            
     e( 42 - 42) =     15.80996  eV     1   --> A'             
     e( 43 - 43) =     15.85737  eV     1   --> A''            
     e( 44 - 44) =     15.87444  eV     1   --> A'             
     e( 45 - 45) =     16.25273  eV     1   --> A''            
     e( 46 - 46) =     16.27076  eV     1   --> A'             
     e( 47 - 47) =     16.28397  eV     1   --> A''            
     e( 48 - 48) =     16.30207  eV     1   --> A'             
     e( 49 - 49) =     17.32378  eV     1   --> A'             
     e( 50 - 50) =     17.86607  eV     1   --> A'             
     e( 51 - 51) =     18.42270  eV     1   --> A'             
     e( 52 - 52) =     18.50244  eV     1   --> A'             
     e( 53 - 53) =     18.67444  eV     1   --> A'             
     e( 54 - 54) =     18.78479  eV     1   --> A'             
     e( 55 - 55) =     18.99493  eV     1   --> A'             
     e( 56 - 56) =     19.59200  eV     1   --> A'             
     e( 57 - 57) =     19.99998  eV     1   --> A''            
     e( 58 - 58) =     20.01966  eV     1   --> A'             
     e( 59 - 59) =     20.06905  eV     1   --> A''            
     e( 60 - 60) =     20.08842  eV     1   --> A'             
     e( 61 - 61) =     21.07895  eV     1   --> A''            
     e( 62 - 62) =     21.09864  eV     1   --> A'             
     e( 63 - 63) =     21.25843  eV     1   --> A''            
     e( 64 - 64) =     21.27764  eV     1   --> A'             
     e( 65 - 65) =     21.55606  eV     1   --> A'             
     e( 66 - 66) =     21.76405  eV     1   --> A'             
     e( 67 - 67) =     21.94346  eV     1   --> A'             
     e( 68 - 68) =     22.74920  eV     1   --> A'             
     e( 69 - 69) =     24.57934  eV     1   --> A''            
     e( 70 - 70) =     24.59888  eV     1   --> A'             

 **************************************************************************

 **************************************************************************

                    xk=(   0.01925,   0.01108,   0.00000  )

     point group C_1 (1)    
     there are  1 classes
     the character table:

       E    
A      1.00

     the symmetry operations in each class and the name of the first element:

     E        1
                                                                 

     Band symmetry, C_1 (1)     point group:

     e(  1 -  1) =     -9.84844  eV     1   --> A              
     e(  2 -  2) =     -9.83110  eV     1   --> A              
     e(  3 -  3) =     -9.74852  eV     1   --> A              
     e(  4 -  4) =     -9.72988  eV     1   --> A              
     e(  5 -  5) =     -2.30002  eV     1   --> A              
     e(  6 -  6) =     -2.21723  eV     1   --> A              
     e(  7 -  7) =     -0.32305  eV     1   --> A              
     e(  8 -  8) =     -0.06003  eV     1   --> A              
     e(  9 -  9) =      2.62852  eV     1   --> A              
     e( 10 - 10) =      3.04441  eV     1   --> A              
     e( 11 - 11) =      4.01698  eV     1   --> A              
     e( 12 - 12) =      4.02114  eV     1   --> A              
     e( 13 - 13) =      4.03844  eV     1   --> A              
     e( 14 - 14) =      4.04259  eV     1   --> A              
     e( 15 - 15) =      4.04336  eV     1   --> A              
     e( 16 - 16) =      4.04696  eV     1   --> A              
     e( 17 - 17) =      4.06667  eV     1   --> A              
     e( 18 - 18) =      4.07089  eV     1   --> A              
     e( 19 - 19) =      7.60357  eV     1   --> A              
     e( 20 - 20) =      8.56243  eV     1   --> A              
     e( 21 - 21) =     10.45112  eV     1   --> A              
     e( 22 - 22) =     10.46638  eV     1   --> A              
     e( 23 - 23) =     10.60874  eV     1   --> A              
     e( 24 - 24) =     10.66259  eV     1   --> A              
     e( 25 - 25) =     10.66859  eV     1   --> A              
     e( 26 - 26) =     11.34528  eV     1   --> A              
     e( 27 - 27) =     11.36313  eV     1   --> A              
     e( 28 - 28) =     11.38506  eV     1   --> A              
     e( 29 - 29) =     11.39122  eV     1   --> A              
     e( 30 - 30) =     11.88487  eV     1   --> A              
     e( 31 - 31) =     11.89129  eV     1   --> A              
     e( 32 - 32) =     11.91456  eV     1   --> A              
     e( 33 - 33) =     11.92133  eV     1   --> A              
     e( 34 - 34) =     12.33059  eV     1   --> A              
     e( 35 - 35) =     14.04035  eV     1   --> A              
     e( 36 - 36) =     14.31205  eV     1   --> A              
     e( 37 - 37) =     14.33556  eV     1   --> A              
     e( 38 - 38) =     14.35613  eV     1   --> A              
     e( 39 - 39) =     14.37950  eV     1   --> A              
     e( 40 - 40) =     14.90365  eV     1   --> A              
     e( 41 - 41) =     15.73917  eV     1   --> A              
     e( 42 - 42) =     15.78492  eV     1   --> A              
     e( 43 - 43) =     15.84504  eV     1   --> A              
     e( 44 - 44) =     15.86002  eV     1   --> A              
     e( 45 - 45) =     16.25567  eV     1   --> A              
     e( 46 - 46) =     16.28883  eV     1   --> A              
     e( 47 - 47) =     16.31682  eV     1   --> A              
     e( 48 - 48) =     16.34232  eV     1   --> A              
     e( 49 - 49) =     17.38484  eV     1   --> A              
     e( 50 - 50) =     17.92504  eV     1   --> A              
     e( 51 - 51) =     18.46335  eV     1   --> A              
     e( 52 - 52) =     18.53373  eV     1   --> A              
     e( 53 - 53) =     18.69704  eV     1   --> A              
     e( 54 - 54) =     18.80123  eV     1   --> A              
     e( 55 - 55) =     19.04055  eV     1   --> A              
     e( 56 - 56) =     19.63228  eV     1   --> A              
     e( 57 - 57) =     19.99932  eV     1   --> A              
     e( 58 - 58) =     20.02663  eV     1   --> A              
     e( 59 - 59) =     20.06710  eV     1   --> A              
     e( 60 - 60) =     20.09714  eV     1   --> A              
     e( 61 - 61) =     21.00611  eV     1   --> A              
     e( 62 - 62) =     21.06688  eV     1   --> A              
     e( 63 - 63) =     21.17744  eV     1   --> A              
     e( 64 - 64) =     21.26361  eV     1   --> A              
     e( 65 - 65) =     21.58639  eV     1   --> A              
     e( 66 - 66) =     21.88515  eV     1   --> A              
     e( 67 - 67) =     21.95266  eV     1   --> A              
     e( 68 - 68) =     22.84671  eV     1   --> A              
     e( 69 - 69) =     24.50110  eV     1   --> A              
     e( 70 - 70) =     24.53252  eV     1   --> A              

 **************************************************************************

 **************************************************************************

                    xk=(   0.03850,   0.02217,   0.00000  )

     Band symmetry, C_1 (1)     point group:

     e(  1 -  1) =     -9.83372  eV     1   --> A              
     e(  2 -  2) =     -9.81640  eV     1   --> A              
     e(  3 -  3) =     -9.73410  eV     1   --> A              
     e(  4 -  4) =     -9.71549  eV     1   --> A              
     e(  5 -  5) =     -2.28302  eV     1   --> A              
     e(  6 -  6) =     -2.20043  eV     1   --> A              
     e(  7 -  7) =     -0.30855  eV     1   --> A              
     e(  8 -  8) =     -0.04636  eV     1   --> A              
     e(  9 -  9) =      2.63660  eV     1   --> A              
     e( 10 - 10) =      3.05023  eV     1   --> A              
     e( 11 - 11) =      3.92400  eV     1   --> A              
     e( 12 - 12) =      3.92804  eV     1   --> A              
     e( 13 - 13) =      3.94472  eV     1   --> A              
     e( 14 - 14) =      3.94650  eV     1   --> A              
     e( 15 - 15) =      4.01470  eV     1   --> A              
     e( 16 - 16) =      4.01886  eV     1   --> A              
     e( 17 - 17) =      4.04368  eV     1   --> A              
     e( 18 - 18) =      4.04795  eV     1   --> A              
     e( 19 - 19) =      7.62920  eV     1   --> A              
     e( 20 - 20) =      8.57981  eV     1   --> A              
     e( 21 - 21) =     10.53213  eV     1   --> A              
     e( 22 - 22) =     10.54702  eV     1   --> A              
     e( 23 - 23) =     10.64109  eV     1   --> A              
     e( 24 - 24) =     10.68380  eV     1   --> A              
     e( 25 - 25) =     10.74267  eV     1   --> A              
     e( 26 - 26) =     11.24933  eV     1   --> A              
     e( 27 - 27) =     11.31124  eV     1   --> A              
     e( 28 - 28) =     11.41736  eV     1   --> A              
     e( 29 - 29) =     11.42334  eV     1   --> A              
     e( 30 - 30) =     11.84101  eV     1   --> A              
     e( 31 - 31) =     11.84551  eV     1   --> A              
     e( 32 - 32) =     11.96422  eV     1   --> A              
     e( 33 - 33) =     11.96858  eV     1   --> A              
     e( 34 - 34) =     12.31027  eV     1   --> A              
     e( 35 - 35) =     14.05749  eV     1   --> A              
     e( 36 - 36) =     14.13868  eV     1   --> A              
     e( 37 - 37) =     14.16822  eV     1   --> A              
     e( 38 - 38) =     14.29742  eV     1   --> A              
     e( 39 - 39) =     14.31006  eV     1   --> A              
     e( 40 - 40) =     14.89128  eV     1   --> A              
     e( 41 - 41) =     15.56819  eV     1   --> A              
     e( 42 - 42) =     15.74245  eV     1   --> A              
     e( 43 - 43) =     15.80501  eV     1   --> A              
     e( 44 - 44) =     15.82178  eV     1   --> A              
     e( 45 - 45) =     16.23912  eV     1   --> A              
     e( 46 - 46) =     16.36050  eV     1   --> A              
     e( 47 - 47) =     16.39231  eV     1   --> A              
     e( 48 - 48) =     16.46973  eV     1   --> A              
     e( 49 - 49) =     17.55695  eV     1   --> A              
     e( 50 - 50) =     18.07882  eV     1   --> A              
     e( 51 - 51) =     18.58182  eV     1   --> A              
     e( 52 - 52) =     18.62635  eV     1   --> A              
     e( 53 - 53) =     18.76358  eV     1   --> A              
     e( 54 - 54) =     18.84688  eV     1   --> A              
     e( 55 - 55) =     19.16922  eV     1   --> A              
     e( 56 - 56) =     19.73634  eV     1   --> A              
     e( 57 - 57) =     19.96951  eV     1   --> A              
     e( 58 - 58) =     20.01903  eV     1   --> A              
     e( 59 - 59) =     20.09384  eV     1   --> A              
     e( 60 - 60) =     20.15249  eV     1   --> A              
     e( 61 - 61) =     20.81756  eV     1   --> A              
     e( 62 - 62) =     20.94814  eV     1   --> A              
     e( 63 - 63) =     21.09156  eV     1   --> A              
     e( 64 - 64) =     21.25384  eV     1   --> A              
     e( 65 - 65) =     21.67378  eV     1   --> A              
     e( 66 - 66) =     21.97646  eV     1   --> A              
     e( 67 - 67) =     22.12322  eV     1   --> A              
     e( 68 - 68) =     23.08797  eV     1   --> A              
     e( 69 - 69) =     24.28713  eV     1   --> A              
     e( 70 - 70) =     24.34998  eV     1   --> A              

 **************************************************************************

 **************************************************************************

                    xk=(   0.05775,   0.03325,   0.00000  )

     Band symmetry, C_1 (1)     point group:

     e(  1 -  1) =     -9.80924  eV     1   --> A              
     e(  2 -  2) =     -9.79196  eV     1   --> A              
     e(  3 -  3) =     -9.71013  eV     1   --> A              
     e(  4 -  4) =     -9.69157  eV     1   --> A              
     e(  5 -  5) =     -2.25477  eV     1   --> A              
     e(  6 -  6) =     -2.17251  eV     1   --> A              
     e(  7 -  7) =     -0.28449  eV     1   --> A              
     e(  8 -  8) =     -0.02372  eV     1   --> A              
     e(  9 -  9) =      2.64870  eV     1   --> A              
     e( 10 - 10) =      3.05782  eV     1   --> A              
     e( 11 - 11) =      3.77797  eV     1   --> A              
     e( 12 - 12) =      3.78094  eV     1   --> A              
     e( 13 - 13) =      3.78718  eV     1   --> A              
     e( 14 - 14) =      3.78831  eV     1   --> A              
     e( 15 - 15) =      3.97597  eV     1   --> A              
     e( 16 - 16) =      3.98017  eV     1   --> A              
     e( 17 - 17) =      4.00614  eV     1   --> A              
     e( 18 - 18) =      4.01045  eV     1   --> A              
     e( 19 - 19) =      7.66930  eV     1   --> A              
     e( 20 - 20) =      8.60536  eV     1   --> A              
     e( 21 - 21) =     10.57727  eV     1   --> A              
     e( 22 - 22) =     10.64836  eV     1   --> A              
     e( 23 - 23) =     10.68402  eV     1   --> A              
     e( 24 - 24) =     10.79501  eV     1   --> A              
     e( 25 - 25) =     10.85284  eV     1   --> A              
     e( 26 - 26) =     11.10391  eV     1   --> A              
     e( 27 - 27) =     11.23527  eV     1   --> A              
     e( 28 - 28) =     11.47306  eV     1   --> A              
     e( 29 - 29) =     11.48414  eV     1   --> A              
     e( 30 - 30) =     11.76974  eV     1   --> A              
     e( 31 - 31) =     11.77206  eV     1   --> A              
     e( 32 - 32) =     12.04248  eV     1   --> A              
     e( 33 - 33) =     12.05638  eV     1   --> A              
     e( 34 - 34) =     12.29049  eV     1   --> A              
     e( 35 - 35) =     13.87268  eV     1   --> A              
     e( 36 - 36) =     13.95356  eV     1   --> A              
     e( 37 - 37) =     14.06912  eV     1   --> A              
     e( 38 - 38) =     14.19125  eV     1   --> A              
     e( 39 - 39) =     14.24916  eV     1   --> A              
     e( 40 - 40) =     14.86296  eV     1   --> A              
     e( 41 - 41) =     15.33221  eV     1   --> A              
     e( 42 - 42) =     15.67241  eV     1   --> A              
     e( 43 - 43) =     15.74179  eV     1   --> A              
     e( 44 - 44) =     15.76393  eV     1   --> A              
     e( 45 - 45) =     16.22786  eV     1   --> A              
     e( 46 - 46) =     16.44778  eV     1   --> A              
     e( 47 - 47) =     16.48289  eV     1   --> A              
     e( 48 - 48) =     16.67462  eV     1   --> A              
     e( 49 - 49) =     17.81259  eV     1   --> A              
     e( 50 - 50) =     18.27945  eV     1   --> A              
     e( 51 - 51) =     18.76345  eV     1   --> A              
     e( 52 - 52) =     18.78269  eV     1   --> A              
     e( 53 - 53) =     18.86732  eV     1   --> A              
     e( 54 - 54) =     18.91252  eV     1   --> A              
     e( 55 - 55) =     19.35723  eV     1   --> A              
     e( 56 - 56) =     19.84159  eV     1   --> A              
     e( 57 - 57) =     19.92943  eV     1   --> A              
     e( 58 - 58) =     19.96295  eV     1   --> A              
     e( 59 - 59) =     20.19643  eV     1   --> A              
     e( 60 - 60) =     20.23617  eV     1   --> A              
     e( 61 - 61) =     20.64719  eV     1   --> A              
     e( 62 - 62) =     20.79279  eV     1   --> A              
     e( 63 - 63) =     21.06522  eV     1   --> A              
     e( 64 - 64) =     21.23958  eV     1   --> A              
     e( 65 - 65) =     21.80894  eV     1   --> A              
     e( 66 - 66) =     22.00423  eV     1   --> A              
     e( 67 - 67) =     22.39540  eV     1   --> A              
     e( 68 - 68) =     23.39181  eV     1   --> A              
     e( 69 - 69) =     24.01472  eV     1   --> A              
     e( 70 - 70) =     24.10424  eV     1   --> A              

 **************************************************************************

 **************************************************************************

                    xk=(   0.07701,   0.04434,   0.00000  )

     Band symmetry, C_1 (1)     point group:

     e(  1 -  1) =     -9.77511  eV     1   --> A              
     e(  2 -  2) =     -9.75790  eV     1   --> A              
     e(  3 -  3) =     -9.67673  eV     1   --> A              
     e(  4 -  4) =     -9.65824  eV     1   --> A              
     e(  5 -  5) =     -2.21539  eV     1   --> A              
     e(  6 -  6) =     -2.13361  eV     1   --> A              
     e(  7 -  7) =     -0.25105  eV     1   --> A              
     e(  8 -  8) =      0.00767  eV     1   --> A              
     e(  9 -  9) =      2.66182  eV     1   --> A              
     e( 10 - 10) =      3.06117  eV     1   --> A              
     e( 11 - 11) =      3.57966  eV     1   --> A              
     e( 12 - 12) =      3.58372  eV     1   --> A              
     e( 13 - 13) =      3.59429  eV     1   --> A              
     e( 14 - 14) =      3.59594  eV     1   --> A              
     e( 15 - 15) =      3.92141  eV     1   --> A              
     e( 16 - 16) =      3.92564  eV     1   --> A              
     e( 17 - 17) =      3.95332  eV     1   --> A              
     e( 18 - 18) =      3.95769  eV     1   --> A              
     e( 19 - 19) =      7.72125  eV     1   --> A              
     e( 20 - 20) =      8.63558  eV     1   --> A              
     e( 21 - 21) =     10.49451  eV     1   --> A              
     e( 22 - 22) =     10.75520  eV     1   --> A              
     e( 23 - 23) =     10.82233  eV     1   --> A              
     e( 24 - 24) =     10.92391  eV     1   --> A              
     e( 25 - 25) =     10.95027  eV     1   --> A              
     e( 26 - 26) =     10.98023  eV     1   --> A              
     e( 27 - 27) =     11.15358  eV     1   --> A              
     e( 28 - 28) =     11.54320  eV     1   --> A              
     e( 29 - 29) =     11.57220  eV     1   --> A              
     e( 30 - 30) =     11.67986  eV     1   --> A              
     e( 31 - 31) =     11.68629  eV     1   --> A              
     e( 32 - 32) =     12.08121  eV     1   --> A              
     e( 33 - 33) =     12.19346  eV     1   --> A              
     e( 34 - 34) =     12.33685  eV     1   --> A              
     e( 35 - 35) =     13.60892  eV     1   --> A              
     e( 36 - 36) =     13.73480  eV     1   --> A              
     e( 37 - 37) =     13.96566  eV     1   --> A              
     e( 38 - 38) =     14.03564  eV     1   --> A              
     e( 39 - 39) =     14.26819  eV     1   --> A              
     e( 40 - 40) =     14.83131  eV     1   --> A              
     e( 41 - 41) =     15.06796  eV     1   --> A              
     e( 42 - 42) =     15.57934  eV     1   --> A              
     e( 43 - 43) =     15.65864  eV     1   --> A              
     e( 44 - 44) =     15.69041  eV     1   --> A              
     e( 45 - 45) =     16.23345  eV     1   --> A              
     e( 46 - 46) =     16.53230  eV     1   --> A              
     e( 47 - 47) =     16.57170  eV     1   --> A              
     e( 48 - 48) =     16.93251  eV     1   --> A              
     e( 49 - 49) =     18.12022  eV     1   --> A              
     e( 50 - 50) =     18.48149  eV     1   --> A              
     e( 51 - 51) =     18.95588  eV     1   --> A              
     e( 52 - 52) =     18.97191  eV     1   --> A              
     e( 53 - 53) =     19.01577  eV     1   --> A              
     e( 54 - 54) =     19.01737  eV     1   --> A              
     e( 55 - 55) =     19.56947  eV     1   --> A              
     e( 56 - 56) =     19.84381  eV     1   --> A              
     e( 57 - 57) =     19.89751  eV     1   --> A              
     e( 58 - 58) =     19.91062  eV     1   --> A              
     e( 59 - 59) =     20.33276  eV     1   --> A              
     e( 60 - 60) =     20.34009  eV     1   --> A              
     e( 61 - 61) =     20.60154  eV     1   --> A              
     e( 62 - 62) =     20.70784  eV     1   --> A              
     e( 63 - 63) =     21.07830  eV     1   --> A              
     e( 64 - 64) =     21.23973  eV     1   --> A              
     e( 65 - 65) =     21.97569  eV     1   --> A              
     e( 66 - 66) =     22.02225  eV     1   --> A              
     e( 67 - 67) =     22.68594  eV     1   --> A              
     e( 68 - 68) =     23.70343  eV     1   --> A              
     e( 69 - 69) =     23.72689  eV     1   --> A              
     e( 70 - 70) =     23.86548  eV     1   --> A              

 **************************************************************************

 **************************************************************************

                    xk=(   0.09626,   0.05542,   0.00000  )

     Band symmetry, C_1 (1)     point group:

     e(  1 -  1) =     -9.73149  eV     1   --> A              
     e(  2 -  2) =     -9.71436  eV     1   --> A              
     e(  3 -  3) =     -9.63404  eV     1   --> A              
     e(  4 -  4) =     -9.61565  eV     1   --> A              
     e(  5 -  5) =     -2.16506  eV     1   --> A              
     e(  6 -  6) =     -2.08395  eV     1   --> A              
     e(  7 -  7) =     -0.20848  eV     1   --> A              
     e(  8 -  8) =      0.04744  eV     1   --> A              
     e(  9 -  9) =      2.66822  eV     1   --> A              
     e( 10 - 10) =      3.03812  eV     1   --> A              
     e( 11 - 11) =      3.33645  eV     1   --> A              
     e( 12 - 12) =      3.34384  eV     1   --> A              
     e( 13 - 13) =      3.38467  eV     1   --> A              
     e( 14 - 14) =      3.40904  eV     1   --> A              
     e( 15 - 15) =      3.85061  eV     1   --> A              
     e( 16 - 16) =      3.85485  eV     1   --> A              
     e( 17 - 17) =      3.88489  eV     1   --> A              
     e( 18 - 18) =      3.88932  eV     1   --> A              
     e( 19 - 19) =      7.78286  eV     1   --> A              
     e( 20 - 20) =      8.66751  eV     1   --> A              
     e( 21 - 21) =     10.36780  eV     1   --> A              
     e( 22 - 22) =     10.65857  eV     1   --> A              
     e( 23 - 23) =     10.95501  eV     1   --> A              
     e( 24 - 24) =     10.97687  eV     1   --> A              
     e( 25 - 25) =     11.04865  eV     1   --> A              
     e( 26 - 26) =     11.08008  eV     1   --> A              
     e( 27 - 27) =     11.10007  eV     1   --> A              
     e( 28 - 28) =     11.58526  eV     1   --> A              
     e( 29 - 29) =     11.60316  eV     1   --> A              
     e( 30 - 30) =     11.60405  eV     1   --> A              
     e( 31 - 31) =     11.68038  eV     1   --> A              
     e( 32 - 32) =     12.03013  eV     1   --> A              
     e( 33 - 33) =     12.37558  eV     1   --> A              
     e( 34 - 34) =     12.50875  eV     1   --> A              
     e( 35 - 35) =     13.36309  eV     1   --> A              
     e( 36 - 36) =     13.52774  eV     1   --> A              
     e( 37 - 37) =     13.83287  eV     1   --> A              
     e( 38 - 38) =     13.88112  eV     1   --> A              
     e( 39 - 39) =     14.31242  eV     1   --> A              
     e( 40 - 40) =     14.80181  eV     1   --> A              
     e( 41 - 41) =     14.80261  eV     1   --> A              
     e( 42 - 42) =     15.46758  eV     1   --> A              
     e( 43 - 43) =     15.55113  eV     1   --> A              
     e( 44 - 44) =     15.61596  eV     1   --> A              
     e( 45 - 45) =     16.25814  eV     1   --> A              
     e( 46 - 46) =     16.60528  eV     1   --> A              
     e( 47 - 47) =     16.64717  eV     1   --> A              
     e( 48 - 48) =     17.21893  eV     1   --> A              
     e( 49 - 49) =     18.45252  eV     1   --> A              
     e( 50 - 50) =     18.65665  eV     1   --> A              
     e( 51 - 51) =     18.99188  eV     1   --> A              
     e( 52 - 52) =     19.11981  eV     1   --> A              
     e( 53 - 53) =     19.19835  eV     1   --> A              
     e( 54 - 54) =     19.27797  eV     1   --> A              
     e( 55 - 55) =     19.77351  eV     1   --> A              
     e( 56 - 56) =     19.79203  eV     1   --> A              
     e( 57 - 57) =     19.88879  eV     1   --> A              
     e( 58 - 58) =     19.91743  eV     1   --> A              
     e( 59 - 59) =     20.43488  eV     1   --> A              
     e( 60 - 60) =     20.50589  eV     1   --> A              
     e( 61 - 61) =     20.59772  eV     1   --> A              
     e( 62 - 62) =     20.71468  eV     1   --> A              
     e( 63 - 63) =     21.21391  eV     1   --> A              
     e( 64 - 64) =     21.30103  eV     1   --> A              
     e( 65 - 65) =     22.00514  eV     1   --> A              
     e( 66 - 66) =     22.15777  eV     1   --> A              
     e( 67 - 67) =     22.99096  eV     1   --> A              
     e( 68 - 68) =     23.46209  eV     1   --> A              
     e( 69 - 69) =     23.67797  eV     1   --> A              
     e( 70 - 70) =     23.98105  eV     1   --> A              

 **************************************************************************

 **************************************************************************

                    xk=(   0.11551,   0.06651,   0.00000  )

     Band symmetry, C_1 (1)     point group:

     e(  1 -  1) =     -9.67858  eV     1   --> A              
     e(  2 -  2) =     -9.66154  eV     1   --> A              
     e(  3 -  3) =     -9.58227  eV     1   --> A              
     e(  4 -  4) =     -9.56400  eV     1   --> A              
     e(  5 -  5) =     -2.10406  eV     1   --> A              
     e(  6 -  6) =     -2.02381  eV     1   --> A              
     e(  7 -  7) =     -0.15716  eV     1   --> A              
     e(  8 -  8) =      0.09508  eV     1   --> A              
     e(  9 -  9) =      2.64568  eV     1   --> A              
     e( 10 - 10) =      2.92280  eV     1   --> A              
     e( 11 - 11) =      3.06719  eV     1   --> A              
     e( 12 - 12) =      3.07806  eV     1   --> A              
     e( 13 - 13) =      3.18463  eV     1   --> A              
     e( 14 - 14) =      3.29361  eV     1   --> A              
     e( 15 - 15) =      3.76326  eV     1   --> A              
     e( 16 - 16) =      3.76747  eV     1   --> A              
     e( 17 - 17) =      3.80060  eV     1   --> A              
     e( 18 - 18) =      3.80510  eV     1   --> A              
     e( 19 - 19) =      7.85260  eV     1   --> A              
     e( 20 - 20) =      8.69892  eV     1   --> A              
     e( 21 - 21) =     10.20483  eV     1   --> A              
     e( 22 - 22) =     10.44490  eV     1   --> A              
     e( 23 - 23) =     10.95887  eV     1   --> A              
     e( 24 - 24) =     11.09547  eV     1   --> A              
     e( 25 - 25) =     11.11614  eV     1   --> A              
     e( 26 - 26) =     11.14201  eV     1   --> A              
     e( 27 - 27) =     11.17728  eV     1   --> A              
     e( 28 - 28) =     11.50743  eV     1   --> A              
     e( 29 - 29) =     11.55617  eV     1   --> A              
     e( 30 - 30) =     11.60633  eV     1   --> A              
     e( 31 - 31) =     11.78911  eV     1   --> A              
     e( 32 - 32) =     11.93678  eV     1   --> A              
     e( 33 - 33) =     12.58988  eV     1   --> A              
     e( 34 - 34) =     12.76035  eV     1   --> A              
     e( 35 - 35) =     13.15632  eV     1   --> A              
     e( 36 - 36) =     13.32419  eV     1   --> A              
     e( 37 - 37) =     13.74362  eV     1   --> A              
     e( 38 - 38) =     13.79502  eV     1   --> A              
     e( 39 - 39) =     14.35512  eV     1   --> A              
     e( 40 - 40) =     14.56165  eV     1   --> A              
     e( 41 - 41) =     14.77429  eV     1   --> A              
     e( 42 - 42) =     15.33710  eV     1   --> A              
     e( 43 - 43) =     15.41912  eV     1   --> A              
     e( 44 - 44) =     15.55839  eV     1   --> A              
     e( 45 - 45) =     16.29815  eV     1   --> A              
     e( 46 - 46) =     16.66050  eV     1   --> A              
     e( 47 - 47) =     16.70154  eV     1   --> A              
     e( 48 - 48) =     17.50851  eV     1   --> A              
     e( 49 - 49) =     18.77080  eV     1   --> A              
     e( 50 - 50) =     18.79832  eV     1   --> A              
     e( 51 - 51) =     18.99531  eV     1   --> A              
     e( 52 - 52) =     19.13028  eV     1   --> A              
     e( 53 - 53) =     19.37611  eV     1   --> A              
     e( 54 - 54) =     19.46514  eV     1   --> A              
     e( 55 - 55) =     19.87496  eV     1   --> A              
     e( 56 - 56) =     19.96526  eV     1   --> A              
     e( 57 - 57) =     19.99745  eV     1   --> A              
     e( 58 - 58) =     20.04635  eV     1   --> A              
     e( 59 - 59) =     20.52710  eV     1   --> A              
     e( 60 - 60) =     20.56165  eV     1   --> A              
     e( 61 - 61) =     20.67120  eV     1   --> A              
     e( 62 - 62) =     20.70413  eV     1   --> A              
     e( 63 - 63) =     21.47531  eV     1   --> A              
     e( 64 - 64) =     21.52239  eV     1   --> A              
     e( 65 - 65) =     21.96157  eV     1   --> A              
     e( 66 - 66) =     22.28697  eV     1   --> A              
     e( 67 - 67) =     23.28246  eV     1   --> A              
     e( 68 - 68) =     23.30478  eV     1   --> A              
     e( 69 - 69) =     23.57125  eV     1   --> A              
     e( 70 - 70) =     24.03117  eV     1   --> A              

 **************************************************************************

 **************************************************************************

                    xk=(   0.13476,   0.07759,   0.00000  )

     Band symmetry, C_1 (1)     point group:

     e(  1 -  1) =     -9.61662  eV     1   --> A              
     e(  2 -  2) =     -9.59971  eV     1   --> A              
     e(  3 -  3) =     -9.52167  eV     1   --> A              
     e(  4 -  4) =     -9.50355  eV     1   --> A              
     e(  5 -  5) =     -2.03273  eV     1   --> A              
     e(  6 -  6) =     -1.95359  eV     1   --> A              
     e(  7 -  7) =     -0.09762  eV     1   --> A              
     e(  8 -  8) =      0.14985  eV     1   --> A              
     e(  9 -  9) =      2.54369  eV     1   --> A              
     e( 10 - 10) =      2.69844  eV     1   --> A              
     e( 11 - 11) =      2.78083  eV     1   --> A              
     e( 12 - 12) =      2.79553  eV     1   --> A              
     e( 13 - 13) =      3.05288  eV     1   --> A              
     e( 14 - 14) =      3.27436  eV     1   --> A              
     e( 15 - 15) =      3.65930  eV     1   --> A              
     e( 16 - 16) =      3.66332  eV     1   --> A              
     e( 17 - 17) =      3.70034  eV     1   --> A              
     e( 18 - 18) =      3.70493  eV     1   --> A              
     e( 19 - 19) =      7.92939  eV     1   --> A              
     e( 20 - 20) =      8.72810  eV     1   --> A              
     e( 21 - 21) =     10.01603  eV     1   --> A              
     e( 22 - 22) =     10.21375  eV     1   --> A              
     e( 23 - 23) =     10.84771  eV     1   --> A              
     e( 24 - 24) =     11.16599  eV     1   --> A              
     e( 25 - 25) =     11.17551  eV     1   --> A              
     e( 26 - 26) =     11.20537  eV     1   --> A              
     e( 27 - 27) =     11.23110  eV     1   --> A              
     e( 28 - 28) =     11.47447  eV     1   --> A              
     e( 29 - 29) =     11.51757  eV     1   --> A              
     e( 30 - 30) =     11.58192  eV     1   --> A              
     e( 31 - 31) =     11.83568  eV     1   --> A              
     e( 32 - 32) =     11.87783  eV     1   --> A              
     e( 33 - 33) =     12.79990  eV     1   --> A              
     e( 34 - 34) =     12.97108  eV     1   --> A              
     e( 35 - 35) =     13.06021  eV     1   --> A              
     e( 36 - 36) =     13.10675  eV     1   --> A              
     e( 37 - 37) =     13.76735  eV     1   --> A              
     e( 38 - 38) =     13.83432  eV     1   --> A              
     e( 39 - 39) =     14.37901  eV     1   --> A              
     e( 40 - 40) =     14.39556  eV     1   --> A              
     e( 41 - 41) =     14.75103  eV     1   --> A              
     e( 42 - 42) =     15.19139  eV     1   --> A              
     e( 43 - 43) =     15.26837  eV     1   --> A              
     e( 44 - 44) =     15.53209  eV     1   --> A              
     e( 45 - 45) =     16.34595  eV     1   --> A              
     e( 46 - 46) =     16.69457  eV     1   --> A              
     e( 47 - 47) =     16.72930  eV     1   --> A              
     e( 48 - 48) =     17.77049  eV     1   --> A              
     e( 49 - 49) =     18.85271  eV     1   --> A              
     e( 50 - 50) =     18.90954  eV     1   --> A              
     e( 51 - 51) =     19.01994  eV     1   --> A              
     e( 52 - 52) =     19.27619  eV     1   --> A              
     e( 53 - 53) =     19.45644  eV     1   --> A              
     e( 54 - 54) =     19.51212  eV     1   --> A              
     e( 55 - 55) =     20.08116  eV     1   --> A              
     e( 56 - 56) =     20.16077  eV     1   --> A              
     e( 57 - 57) =     20.28534  eV     1   --> A              
     e( 58 - 58) =     20.32486  eV     1   --> A              
     e( 59 - 59) =     20.51169  eV     1   --> A              
     e( 60 - 60) =     20.60444  eV     1   --> A              
     e( 61 - 61) =     20.65508  eV     1   --> A              
     e( 62 - 62) =     20.78967  eV     1   --> A              
     e( 63 - 63) =     21.80503  eV     1   --> A              
     e( 64 - 64) =     21.90495  eV     1   --> A              
     e( 65 - 65) =     21.91410  eV     1   --> A              
     e( 66 - 66) =     22.29000  eV     1   --> A              
     e( 67 - 67) =     23.25996  eV     1   --> A              
     e( 68 - 68) =     23.55361  eV     1   --> A              
     e( 69 - 69) =     23.61041  eV     1   --> A              
     e( 70 - 70) =     23.84644  eV     1   --> A              

 **************************************************************************

 **************************************************************************

                    xk=(   0.15401,   0.08868,   0.00000  )

     Band symmetry, C_1 (1)     point group:

     e(  1 -  1) =     -9.54593  eV     1   --> A              
     e(  2 -  2) =     -9.52916  eV     1   --> A              
     e(  3 -  3) =     -9.45255  eV     1   --> A              
     e(  4 -  4) =     -9.43461  eV     1   --> A              
     e(  5 -  5) =     -1.95156  eV     1   --> A              
     e(  6 -  6) =     -1.87386  eV     1   --> A              
     e(  7 -  7) =     -0.03061  eV     1   --> A              
     e(  8 -  8) =      0.21058  eV     1   --> A              
     e(  9 -  9) =      2.34037  eV     1   --> A              
     e( 10 - 10) =      2.42905  eV     1   --> A              
     e( 11 - 11) =      2.48483  eV     1   --> A              
     e( 12 - 12) =      2.50413  eV     1   --> A              
     e( 13 - 13) =      3.01794  eV     1   --> A              
     e( 14 - 14) =      3.29346  eV     1   --> A              
     e( 15 - 15) =      3.53924  eV     1   --> A              
     e( 16 - 16) =      3.54249  eV     1   --> A              
     e( 17 - 17) =      3.58421  eV     1   --> A              
     e( 18 - 18) =      3.58889  eV     1   --> A              
     e( 19 - 19) =      8.01231  eV     1   --> A              
     e( 20 - 20) =      8.75352  eV     1   --> A              
     e( 21 - 21) =      9.81056  eV     1   --> A              
     e( 22 - 22) =      9.97644  eV     1   --> A              
     e( 23 - 23) =     10.69232  eV     1   --> A              
     e( 24 - 24) =     11.11666  eV     1   --> A              
     e( 25 - 25) =     11.12010  eV     1   --> A              
     e( 26 - 26) =     11.22407  eV     1   --> A              
     e( 27 - 27) =     11.34632  eV     1   --> A              
     e( 28 - 28) =     11.42164  eV     1   --> A              
     e( 29 - 29) =     11.44962  eV     1   --> A              
     e( 30 - 30) =     11.66610  eV     1   --> A              
     e( 31 - 31) =     11.77909  eV     1   --> A              
     e( 32 - 32) =     11.94564  eV     1   --> A              
     e( 33 - 33) =     12.78020  eV     1   --> A              
     e( 34 - 34) =     12.88098  eV     1   --> A              
     e( 35 - 35) =     12.93992  eV     1   --> A              
     e( 36 - 36) =     13.38221  eV     1   --> A              
     e( 37 - 37) =     13.90426  eV     1   --> A              
     e( 38 - 38) =     13.98485  eV     1   --> A              
     e( 39 - 39) =     14.29900  eV     1   --> A              
     e( 40 - 40) =     14.45728  eV     1   --> A              
     e( 41 - 41) =     14.74851  eV     1   --> A              
     e( 42 - 42) =     15.04456  eV     1   --> A              
     e( 43 - 43) =     15.11309  eV     1   --> A              
     e( 44 - 44) =     15.54944  eV     1   --> A              
     e( 45 - 45) =     16.38874  eV     1   --> A              
     e( 46 - 46) =     16.71218  eV     1   --> A              
     e( 47 - 47) =     16.72687  eV     1   --> A              
     e( 48 - 48) =     17.97189  eV     1   --> A              
     e( 49 - 49) =     18.73231  eV     1   --> A              
     e( 50 - 50) =     18.99245  eV     1   --> A              
     e( 51 - 51) =     19.10451  eV     1   --> A              
     e( 52 - 52) =     19.47756  eV     1   --> A              
     e( 53 - 53) =     19.50919  eV     1   --> A              
     e( 54 - 54) =     19.61776  eV     1   --> A              
     e( 55 - 55) =     20.20783  eV     1   --> A              
     e( 56 - 56) =     20.35731  eV     1   --> A              
     e( 57 - 57) =     20.56409  eV     1   --> A              
     e( 58 - 58) =     20.56680  eV     1   --> A              
     e( 59 - 59) =     20.62656  eV     1   --> A              
     e( 60 - 60) =     20.64793  eV     1   --> A              
     e( 61 - 61) =     20.74245  eV     1   --> A              
     e( 62 - 62) =     20.85633  eV     1   --> A              
     e( 63 - 63) =     21.89260  eV     1   --> A              
     e( 64 - 64) =     22.21546  eV     1   --> A              
     e( 65 - 65) =     22.22592  eV     1   --> A              
     e( 66 - 66) =     22.33596  eV     1   --> A              
     e( 67 - 67) =     23.28515  eV     1   --> A              
     e( 68 - 68) =     23.63979  eV     1   --> A              
     e( 69 - 69) =     23.76494  eV     1   --> A              
     e( 70 - 70) =     23.85775  eV     1   --> A              

 **************************************************************************

 **************************************************************************

                    xk=(   0.17326,   0.09976,   0.00000  )

     Band symmetry, C_1 (1)     point group:

     e(  1 -  1) =     -9.46688  eV     1   --> A              
     e(  2 -  2) =     -9.45028  eV     1   --> A              
     e(  3 -  3) =     -9.37530  eV     1   --> A              
     e(  4 -  4) =     -9.35757  eV     1   --> A              
     e(  5 -  5) =     -1.86124  eV     1   --> A              
     e(  6 -  6) =     -1.78537  eV     1   --> A              
     e(  7 -  7) =      0.04271  eV     1   --> A              
     e(  8 -  8) =      0.27544  eV     1   --> A              
     e(  9 -  9) =      2.08328  eV     1   --> A              
     e( 10 - 10) =      2.14531  eV     1   --> A              
     e( 11 - 11) =      2.18563  eV     1   --> A              
     e( 12 - 12) =      2.21095  eV     1   --> A              
     e( 13 - 13) =      3.03748  eV     1   --> A              
     e( 14 - 14) =      3.32078  eV     1   --> A              
     e( 15 - 15) =      3.40537  eV     1   --> A              
     e( 16 - 16) =      3.40845  eV     1   --> A              
     e( 17 - 17) =      3.45258  eV     1   --> A              
     e( 18 - 18) =      3.45735  eV     1   --> A              
     e( 19 - 19) =      8.10029  eV     1   --> A              
     e( 20 - 20) =      8.77355  eV     1   --> A              
     e( 21 - 21) =      9.59439  eV     1   --> A              
     e( 22 - 22) =      9.73607  eV     1   --> A              
     e( 23 - 23) =     10.49561  eV     1   --> A              
     e( 24 - 24) =     11.01300  eV     1   --> A              
     e( 25 - 25) =     11.04272  eV     1   --> A              
     e( 26 - 26) =     11.04946  eV     1   --> A              
     e( 27 - 27) =     11.34973  eV     1   --> A              
     e( 28 - 28) =     11.46261  eV     1   --> A              
     e( 29 - 29) =     11.49677  eV     1   --> A              
     e( 30 - 30) =     11.77369  eV     1   --> A              
     e( 31 - 31) =     11.81815  eV     1   --> A              
     e( 32 - 32) =     12.00812  eV     1   --> A              
     e( 33 - 33) =     12.58578  eV     1   --> A              
     e( 34 - 34) =     12.66212  eV     1   --> A              
     e( 35 - 35) =     12.95462  eV     1   --> A              
     e( 36 - 36) =     13.69045  eV     1   --> A              
     e( 37 - 37) =     14.03755  eV     1   --> A              
     e( 38 - 38) =     14.15137  eV     1   --> A              
     e( 39 - 39) =     14.31072  eV     1   --> A              
     e( 40 - 40) =     14.61736  eV     1   --> A              
     e( 41 - 41) =     14.82707  eV     1   --> A              
     e( 42 - 42) =     14.90859  eV     1   --> A              
     e( 43 - 43) =     15.02137  eV     1   --> A              
     e( 44 - 44) =     15.62476  eV     1   --> A              
     e( 45 - 45) =     16.40428  eV     1   --> A              
     e( 46 - 46) =     16.69258  eV     1   --> A              
     e( 47 - 47) =     16.73394  eV     1   --> A              
     e( 48 - 48) =     18.10184  eV     1   --> A              
     e( 49 - 49) =     18.61625  eV     1   --> A              
     e( 50 - 50) =     19.04563  eV     1   --> A              
     e( 51 - 51) =     19.25659  eV     1   --> A              
     e( 52 - 52) =     19.45833  eV     1   --> A              
     e( 53 - 53) =     19.52599  eV     1   --> A              
     e( 54 - 54) =     19.97571  eV     1   --> A              
     e( 55 - 55) =     20.16184  eV     1   --> A              
     e( 56 - 56) =     20.43847  eV     1   --> A              
     e( 57 - 57) =     20.57602  eV     1   --> A              
     e( 58 - 58) =     20.65926  eV     1   --> A              
     e( 59 - 59) =     20.68840  eV     1   --> A              
     e( 60 - 60) =     20.87378  eV     1   --> A              
     e( 61 - 61) =     21.09960  eV     1   --> A              
     e( 62 - 62) =     21.18020  eV     1   --> A              
     e( 63 - 63) =     21.86175  eV     1   --> A              
     e( 64 - 64) =     22.22520  eV     1   --> A              
     e( 65 - 65) =     22.70029  eV     1   --> A              
     e( 66 - 66) =     22.78863  eV     1   --> A              
     e( 67 - 67) =     23.20058  eV     1   --> A              
     e( 68 - 68) =     23.75345  eV     1   --> A              
     e( 69 - 69) =     23.90609  eV     1   --> A              
     e( 70 - 70) =     23.94646  eV     1   --> A              

 **************************************************************************

 **************************************************************************

                    xk=(   0.19251,   0.11085,   0.00000  )

     Band symmetry, C_1 (1)     point group:

     e(  1 -  1) =     -9.37991  eV     1   --> A              
     e(  2 -  2) =     -9.36351  eV     1   --> A              
     e(  3 -  3) =     -9.29037  eV     1   --> A              
     e(  4 -  4) =     -9.27289  eV     1   --> A              
     e(  5 -  5) =     -1.76269  eV     1   --> A              
     e(  6 -  6) =     -1.68919  eV     1   --> A              
     e(  7 -  7) =      0.12043  eV     1   --> A              
     e(  8 -  8) =      0.34123  eV     1   --> A              
     e(  9 -  9) =      1.80845  eV     1   --> A              
     e( 10 - 10) =      1.85933  eV     1   --> A              
     e( 11 - 11) =      1.88921  eV     1   --> A              
     e( 12 - 12) =      1.92329  eV     1   --> A              
     e( 13 - 13) =      3.07865  eV     1   --> A              
     e( 14 - 14) =      3.23890  eV     1   --> A              
     e( 15 - 15) =      3.25419  eV     1   --> A              
     e( 16 - 16) =      3.30607  eV     1   --> A              
     e( 17 - 17) =      3.31095  eV     1   --> A              
     e( 18 - 18) =      3.37706  eV     1   --> A              
     e( 19 - 19) =      8.19183  eV     1   --> A              
     e( 20 - 20) =      8.78639  eV     1   --> A              
     e( 21 - 21) =      9.37084  eV     1   --> A              
     e( 22 - 22) =      9.49341  eV     1   --> A              
     e( 23 - 23) =     10.26651  eV     1   --> A              
     e( 24 - 24) =     10.73616  eV     1   --> A              
     e( 25 - 25) =     10.97190  eV     1   --> A              
     e( 26 - 26) =     10.97832  eV     1   --> A              
     e( 27 - 27) =     11.20015  eV     1   --> A              
     e( 28 - 28) =     11.58234  eV     1   --> A              
     e( 29 - 29) =     11.61300  eV     1   --> A              
     e( 30 - 30) =     11.89110  eV     1   --> A              
     e( 31 - 31) =     11.91549  eV     1   --> A              
     e( 32 - 32) =     12.07821  eV     1   --> A              
     e( 33 - 33) =     12.40173  eV     1   --> A              
     e( 34 - 34) =     12.46288  eV     1   --> A              
     e( 35 - 35) =     12.86832  eV     1   --> A              
     e( 36 - 36) =     13.92528  eV     1   --> A              
     e( 37 - 37) =     14.06185  eV     1   --> A              
     e( 38 - 38) =     14.20741  eV     1   --> A              
     e( 39 - 39) =     14.26672  eV     1   --> A              
     e( 40 - 40) =     14.79175  eV     1   --> A              
     e( 41 - 41) =     14.93418  eV     1   --> A              
     e( 42 - 42) =     15.07593  eV     1   --> A              
     e( 43 - 43) =     15.14226  eV     1   --> A              
     e( 44 - 44) =     15.77633  eV     1   --> A              
     e( 45 - 45) =     16.37232  eV     1   --> A              
     e( 46 - 46) =     16.63009  eV     1   --> A              
     e( 47 - 47) =     16.78328  eV     1   --> A              
     e( 48 - 48) =     18.18555  eV     1   --> A              
     e( 49 - 49) =     18.52951  eV     1   --> A              
     e( 50 - 50) =     19.06508  eV     1   --> A              
     e( 51 - 51) =     19.42480  eV     1   --> A              
     e( 52 - 52) =     19.44176  eV     1   --> A              
     e( 53 - 53) =     19.55835  eV     1   --> A              
     e( 54 - 54) =     20.07360  eV     1   --> A              
     e( 55 - 55) =     20.24402  eV     1   --> A              
     e( 56 - 56) =     20.46085  eV     1   --> A              
     e( 57 - 57) =     20.51625  eV     1   --> A              
     e( 58 - 58) =     20.55973  eV     1   --> A              
     e( 59 - 59) =     20.93806  eV     1   --> A              
     e( 60 - 60) =     21.19875  eV     1   --> A              
     e( 61 - 61) =     21.35965  eV     1   --> A              
     e( 62 - 62) =     21.60475  eV     1   --> A              
     e( 63 - 63) =     21.90984  eV     1   --> A              
     e( 64 - 64) =     22.32279  eV     1   --> A              
     e( 65 - 65) =     23.14054  eV     1   --> A              
     e( 66 - 66) =     23.18984  eV     1   --> A              
     e( 67 - 67) =     23.24200  eV     1   --> A              
     e( 68 - 68) =     23.68520  eV     1   --> A              
     e( 69 - 69) =     23.88577  eV     1   --> A              
     e( 70 - 70) =     24.09689  eV     1   --> A              

 **************************************************************************

 **************************************************************************

                    xk=(   0.21177,   0.12193,   0.00000  )

     Band symmetry, C_1 (1)     point group:

     e(  1 -  1) =     -9.28556  eV     1   --> A              
     e(  2 -  2) =     -9.26940  eV     1   --> A              
     e(  3 -  3) =     -9.19829  eV     1   --> A              
     e(  4 -  4) =     -9.18109  eV     1   --> A              
     e(  5 -  5) =     -1.65726  eV     1   --> A              
     e(  6 -  6) =     -1.58685  eV     1   --> A              
     e(  7 -  7) =      0.19905  eV     1   --> A              
     e(  8 -  8) =      0.40173  eV     1   --> A              
     e(  9 -  9) =      1.53188  eV     1   --> A              
     e( 10 - 10) =      1.57842  eV     1   --> A              
     e( 11 - 11) =      1.60225  eV     1   --> A              
     e( 12 - 12) =      1.65054  eV     1   --> A              
     e( 13 - 13) =      3.07094  eV     1   --> A              
     e( 14 - 14) =      3.07439  eV     1   --> A              
     e( 15 - 15) =      3.14567  eV     1   --> A              
     e( 16 - 16) =      3.14763  eV     1   --> A              
     e( 17 - 17) =      3.15080  eV     1   --> A              
     e( 18 - 18) =      3.41656  eV     1   --> A              
     e( 19 - 19) =      8.28470  eV     1   --> A              
     e( 20 - 20) =      8.79008  eV     1   --> A              
     e( 21 - 21) =      9.14161  eV     1   --> A              
     e( 22 - 22) =      9.24828  eV     1   --> A              
     e( 23 - 23) =     10.01686  eV     1   --> A              
     e( 24 - 24) =     10.44520  eV     1   --> A              
     e( 25 - 25) =     10.90758  eV     1   --> A              
     e( 26 - 26) =     10.91127  eV     1   --> A              
     e( 27 - 27) =     11.04384  eV     1   --> A              
     e( 28 - 28) =     11.70565  eV     1   --> A              
     e( 29 - 29) =     11.73826  eV     1   --> A              
     e( 30 - 30) =     12.01360  eV     1   --> A              
     e( 31 - 31) =     12.03713  eV     1   --> A              
     e( 32 - 32) =     12.15673  eV     1   --> A              
     e( 33 - 33) =     12.24069  eV     1   --> A              
     e( 34 - 34) =     12.29692  eV     1   --> A              
     e( 35 - 35) =     12.74271  eV     1   --> A              
     e( 36 - 36) =     14.00059  eV     1   --> A              
     e( 37 - 37) =     14.00356  eV     1   --> A              
     e( 38 - 38) =     14.11326  eV     1   --> A              
     e( 39 - 39) =     14.15512  eV     1   --> A              
     e( 40 - 40) =     14.76856  eV     1   --> A              
     e( 41 - 41) =     15.34660  eV     1   --> A              
     e( 42 - 42) =     15.45654  eV     1   --> A              
     e( 43 - 43) =     15.46655  eV     1   --> A              
     e( 44 - 44) =     16.02014  eV     1   --> A              
     e( 45 - 45) =     16.30115  eV     1   --> A              
     e( 46 - 46) =     16.54429  eV     1   --> A              
     e( 47 - 47) =     16.86319  eV     1   --> A              
     e( 48 - 48) =     18.25465  eV     1   --> A              
     e( 49 - 49) =     18.47195  eV     1   --> A              
     e( 50 - 50) =     19.04670  eV     1   --> A              
     e( 51 - 51) =     19.38008  eV     1   --> A              
     e( 52 - 52) =     19.59574  eV     1   --> A              
     e( 53 - 53) =     19.59834  eV     1   --> A              
     e( 54 - 54) =     20.01190  eV     1   --> A              
     e( 55 - 55) =     20.30657  eV     1   --> A              
     e( 56 - 56) =     20.30723  eV     1   --> A              
     e( 57 - 57) =     20.44125  eV     1   --> A              
     e( 58 - 58) =     20.81758  eV     1   --> A              
     e( 59 - 59) =     21.22395  eV     1   --> A              
     e( 60 - 60) =     21.38273  eV     1   --> A              
     e( 61 - 61) =     21.52929  eV     1   --> A              
     e( 62 - 62) =     21.96304  eV     1   --> A              
     e( 63 - 63) =     22.11793  eV     1   --> A              
     e( 64 - 64) =     22.49106  eV     1   --> A              
     e( 65 - 65) =     23.21687  eV     1   --> A              
     e( 66 - 66) =     23.53115  eV     1   --> A              
     e( 67 - 67) =     23.57799  eV     1   --> A              
     e( 68 - 68) =     23.64360  eV     1   --> A              
     e( 69 - 69) =     23.91410  eV     1   --> A              
     e( 70 - 70) =     24.20092  eV     1   --> A              

 **************************************************************************

 **************************************************************************

                    xk=(   0.23102,   0.13302,   0.00000  )

     Band symmetry, C_1 (1)     point group:

     e(  1 -  1) =     -9.18446  eV     1   --> A              
     e(  2 -  2) =     -9.16857  eV     1   --> A              
     e(  3 -  3) =     -9.09970  eV     1   --> A              
     e(  4 -  4) =     -9.08281  eV     1   --> A              
     e(  5 -  5) =     -1.54692  eV     1   --> A              
     e(  6 -  6) =     -1.48060  eV     1   --> A              
     e(  7 -  7) =      0.27115  eV     1   --> A              
     e(  8 -  8) =      0.44366  eV     1   --> A              
     e(  9 -  9) =      1.26253  eV     1   --> A              
     e( 10 - 10) =      1.30863  eV     1   --> A              
     e( 11 - 11) =      1.33464  eV     1   --> A              
     e( 12 - 12) =      1.40840  eV     1   --> A              
     e( 13 - 13) =      2.89309  eV     1   --> A              
     e( 14 - 14) =      2.89793  eV     1   --> A              
     e( 15 - 15) =      2.97267  eV     1   --> A              
     e( 16 - 16) =      2.97773  eV     1   --> A              
     e( 17 - 17) =      3.19925  eV     1   --> A              
     e( 18 - 18) =      3.45916  eV     1   --> A              
     e( 19 - 19) =      8.37555  eV     1   --> A              
     e( 20 - 20) =      8.78268  eV     1   --> A              
     e( 21 - 21) =      8.90774  eV     1   --> A              
     e( 22 - 22) =      9.00035  eV     1   --> A              
     e( 23 - 23) =      9.75726  eV     1   --> A              
     e( 24 - 24) =     10.15479  eV     1   --> A              
     e( 25 - 25) =     10.80834  eV     1   --> A              
     e( 26 - 26) =     10.86096  eV     1   --> A              
     e( 27 - 27) =     10.93118  eV     1   --> A              
     e( 28 - 28) =     11.82612  eV     1   --> A              
     e( 29 - 29) =     11.86242  eV     1   --> A              
     e( 30 - 30) =     12.11668  eV     1   --> A              
     e( 31 - 31) =     12.13604  eV     1   --> A              
     e( 32 - 32) =     12.14690  eV     1   --> A              
     e( 33 - 33) =     12.17269  eV     1   --> A              
     e( 34 - 34) =     12.27347  eV     1   --> A              
     e( 35 - 35) =     12.62172  eV     1   --> A              
     e( 36 - 36) =     13.89666  eV     1   --> A              
     e( 37 - 37) =     13.90040  eV     1   --> A              
     e( 38 - 38) =     13.91768  eV     1   --> A              
     e( 39 - 39) =     14.05003  eV     1   --> A              
     e( 40 - 40) =     14.84831  eV     1   --> A              
     e( 41 - 41) =     15.77246  eV     1   --> A              
     e( 42 - 42) =     15.85359  eV     1   --> A              
     e( 43 - 43) =     15.92604  eV     1   --> A              
     e( 44 - 44) =     16.23674  eV     1   --> A              
     e( 45 - 45) =     16.35441  eV     1   --> A              
     e( 46 - 46) =     16.44286  eV     1   --> A              
     e( 47 - 47) =     16.96389  eV     1   --> A              
     e( 48 - 48) =     18.32608  eV     1   --> A              
     e( 49 - 49) =     18.43911  eV     1   --> A              
     e( 50 - 50) =     18.99149  eV     1   --> A              
     e( 51 - 51) =     19.31698  eV     1   --> A              
     e( 52 - 52) =     19.63592  eV     1   --> A              
     e( 53 - 53) =     19.67911  eV     1   --> A              
     e( 54 - 54) =     19.96675  eV     1   --> A              
     e( 55 - 55) =     20.17666  eV     1   --> A              
     e( 56 - 56) =     20.31704  eV     1   --> A              
     e( 57 - 57) =     20.41254  eV     1   --> A              
     e( 58 - 58) =     21.13895  eV     1   --> A              
     e( 59 - 59) =     21.30160  eV     1   --> A              
     e( 60 - 60) =     21.52336  eV     1   --> A              
     e( 61 - 61) =     21.85245  eV     1   --> A              
     e( 62 - 62) =     22.02968  eV     1   --> A              
     e( 63 - 63) =     22.42167  eV     1   --> A              
     e( 64 - 64) =     22.74191  eV     1   --> A              
     e( 65 - 65) =     23.42601  eV     1   --> A              
     e( 66 - 66) =     23.47469  eV     1   --> A              
     e( 67 - 67) =     23.64300  eV     1   --> A              
     e( 68 - 68) =     23.80916  eV     1   --> A              
     e( 69 - 69) =     24.34471  eV     1   --> A              
     e( 70 - 70) =     24.43644  eV     1   --> A              

 **************************************************************************

 **************************************************************************

                    xk=(   0.25027,   0.14410,   0.00000  )

     Band symmetry, C_1 (1)     point group:

     e(  1 -  1) =     -9.07733  eV     1   --> A              
     e(  2 -  2) =     -9.06175  eV     1   --> A              
     e(  3 -  3) =     -8.99531  eV     1   --> A              
     e(  4 -  4) =     -8.97880  eV     1   --> A              
     e(  5 -  5) =     -1.43464  eV     1   --> A              
     e(  6 -  6) =     -1.37383  eV     1   --> A              
     e(  7 -  7) =      0.31874  eV     1   --> A              
     e(  8 -  8) =      0.43954  eV     1   --> A              
     e(  9 -  9) =      1.00754  eV     1   --> A              
     e( 10 - 10) =      1.05614  eV     1   --> A              
     e( 11 - 11) =      1.10628  eV     1   --> A              
     e( 12 - 12) =      1.22624  eV     1   --> A              
     e( 13 - 13) =      2.69984  eV     1   --> A              
     e( 14 - 14) =      2.70545  eV     1   --> A              
     e( 15 - 15) =      2.78849  eV     1   --> A              
     e( 16 - 16) =      2.79363  eV     1   --> A              
     e( 17 - 17) =      3.26014  eV     1   --> A              
     e( 18 - 18) =      3.50068  eV     1   --> A              
     e( 19 - 19) =      8.45954  eV     1   --> A              
     e( 20 - 20) =      8.67016  eV     1   --> A              
     e( 21 - 21) =      8.74957  eV     1   --> A              
     e( 22 - 22) =      8.76253  eV     1   --> A              
     e( 23 - 23) =      9.49603  eV     1   --> A              
     e( 24 - 24) =      9.87250  eV     1   --> A              
     e( 25 - 25) =     10.67114  eV     1   --> A              
     e( 26 - 26) =     10.82201  eV     1   --> A              
     e( 27 - 27) =     10.88204  eV     1   --> A              
     e( 28 - 28) =     11.90376  eV     1   --> A              
     e( 29 - 29) =     11.92602  eV     1   --> A              
     e( 30 - 30) =     12.09427  eV     1   --> A              
     e( 31 - 31) =     12.10591  eV     1   --> A              
     e( 32 - 32) =     12.24127  eV     1   --> A              
     e( 33 - 33) =     12.31882  eV     1   --> A              
     e( 34 - 34) =     12.37349  eV     1   --> A              
     e( 35 - 35) =     12.54145  eV     1   --> A              
     e( 36 - 36) =     13.68972  eV     1   --> A              
     e( 37 - 37) =     13.73731  eV     1   --> A              
     e( 38 - 38) =     13.75656  eV     1   --> A              
     e( 39 - 39) =     13.92104  eV     1   --> A              
     e( 40 - 40) =     14.95978  eV     1   --> A              
     e( 41 - 41) =     15.93789  eV     1   --> A              
     e( 42 - 42) =     16.26465  eV     1   --> A              
     e( 43 - 43) =     16.28388  eV     1   --> A              
     e( 44 - 44) =     16.44300  eV     1   --> A              
     e( 45 - 45) =     16.45754  eV     1   --> A              
     e( 46 - 46) =     16.75367  eV     1   --> A              
     e( 47 - 47) =     17.07941  eV     1   --> A              
     e( 48 - 48) =     18.40015  eV     1   --> A              
     e( 49 - 49) =     18.43380  eV     1   --> A              
     e( 50 - 50) =     18.91551  eV     1   --> A              
     e( 51 - 51) =     19.23164  eV     1   --> A              
     e( 52 - 52) =     19.65725  eV     1   --> A              
     e( 53 - 53) =     19.71967  eV     1   --> A              
     e( 54 - 54) =     19.93854  eV     1   --> A              
     e( 55 - 55) =     20.08893  eV     1   --> A              
     e( 56 - 56) =     20.22331  eV     1   --> A              
     e( 57 - 57) =     20.58699  eV     1   --> A              
     e( 58 - 58) =     21.18147  eV     1   --> A              
     e( 59 - 59) =     21.40543  eV     1   --> A              
     e( 60 - 60) =     21.81617  eV     1   --> A              
     e( 61 - 61) =     21.98446  eV     1   --> A              
     e( 62 - 62) =     22.16283  eV     1   --> A              
     e( 63 - 63) =     22.61336  eV     1   --> A              
     e( 64 - 64) =     22.93372  eV     1   --> A              
     e( 65 - 65) =     23.36372  eV     1   --> A              
     e( 66 - 66) =     23.78680  eV     1   --> A              
     e( 67 - 67) =     23.78894  eV     1   --> A              
     e( 68 - 68) =     23.95075  eV     1   --> A              
     e( 69 - 69) =     24.77716  eV     1   --> A              
     e( 70 - 70) =     24.82369  eV     1   --> A              

 **************************************************************************

 **************************************************************************

                    xk=(   0.26952,   0.15519,   0.00000  )

     Band symmetry, C_1 (1)     point group:

     e(  1 -  1) =     -8.96502  eV     1   --> A              
     e(  2 -  2) =     -8.94982  eV     1   --> A              
     e(  3 -  3) =     -8.88599  eV     1   --> A              
     e(  4 -  4) =     -8.86991  eV     1   --> A              
     e(  5 -  5) =     -1.32509  eV     1   --> A              
     e(  6 -  6) =     -1.27173  eV     1   --> A              
     e(  7 -  7) =      0.30189  eV     1   --> A              
     e(  8 -  8) =      0.35519  eV     1   --> A              
     e(  9 -  9) =      0.77438  eV     1   --> A              
     e( 10 - 10) =      0.82832  eV     1   --> A              
     e( 11 - 11) =      0.95860  eV     1   --> A              
     e( 12 - 12) =      1.13963  eV     1   --> A              
     e( 13 - 13) =      2.49636  eV     1   --> A              
     e( 14 - 14) =      2.50227  eV     1   --> A              
     e( 15 - 15) =      2.59485  eV     1   --> A              
     e( 16 - 16) =      2.60001  eV     1   --> A              
     e( 17 - 17) =      3.32117  eV     1   --> A              
     e( 18 - 18) =      3.53883  eV     1   --> A              
     e( 19 - 19) =      8.43000  eV     1   --> A              
     e( 20 - 20) =      8.49645  eV     1   --> A              
     e( 21 - 21) =      8.53006  eV     1   --> A              
     e( 22 - 22) =      8.72874  eV     1   --> A              
     e( 23 - 23) =      9.23962  eV     1   --> A              
     e( 24 - 24) =      9.60310  eV     1   --> A              
     e( 25 - 25) =     10.54384  eV     1   --> A              
     e( 26 - 26) =     10.79226  eV     1   --> A              
     e( 27 - 27) =     10.85821  eV     1   --> A              
     e( 28 - 28) =     11.88679  eV     1   --> A              
     e( 29 - 29) =     11.88879  eV     1   --> A              
     e( 30 - 30) =     12.19456  eV     1   --> A              
     e( 31 - 31) =     12.21524  eV     1   --> A              
     e( 32 - 32) =     12.28072  eV     1   --> A              
     e( 33 - 33) =     12.47384  eV     1   --> A              
     e( 34 - 34) =     12.48194  eV     1   --> A              
     e( 35 - 35) =     12.55811  eV     1   --> A              
     e( 36 - 36) =     13.47491  eV     1   --> A              
     e( 37 - 37) =     13.54011  eV     1   --> A              
     e( 38 - 38) =     13.59315  eV     1   --> A              
     e( 39 - 39) =     13.78656  eV     1   --> A              
     e( 40 - 40) =     15.06896  eV     1   --> A              
     e( 41 - 41) =     15.82958  eV     1   --> A              
     e( 42 - 42) =     16.17376  eV     1   --> A              
     e( 43 - 43) =     16.63385  eV     1   --> A              
     e( 44 - 44) =     16.89217  eV     1   --> A              
     e( 45 - 45) =     16.95781  eV     1   --> A              
     e( 46 - 46) =     17.17644  eV     1   --> A              
     e( 47 - 47) =     17.21326  eV     1   --> A              
     e( 48 - 48) =     18.42866  eV     1   --> A              
     e( 49 - 49) =     18.50624  eV     1   --> A              
     e( 50 - 50) =     18.85797  eV     1   --> A              
     e( 51 - 51) =     19.13931  eV     1   --> A              
     e( 52 - 52) =     19.65157  eV     1   --> A              
     e( 53 - 53) =     19.75801  eV     1   --> A              
     e( 54 - 54) =     19.93817  eV     1   --> A              
     e( 55 - 55) =     20.03707  eV     1   --> A              
     e( 56 - 56) =     20.18370  eV     1   --> A              
     e( 57 - 57) =     20.79231  eV     1   --> A              
     e( 58 - 58) =     21.04806  eV     1   --> A              
     e( 59 - 59) =     21.58269  eV     1   --> A              
     e( 60 - 60) =     21.92197  eV     1   --> A              
     e( 61 - 61) =     22.07321  eV     1   --> A              
     e( 62 - 62) =     22.45567  eV     1   --> A              
     e( 63 - 63) =     22.63104  eV     1   --> A              
     e( 64 - 64) =     23.15154  eV     1   --> A              
     e( 65 - 65) =     23.31378  eV     1   --> A              
     e( 66 - 66) =     23.72421  eV     1   --> A              
     e( 67 - 67) =     24.27640  eV     1   --> A              
     e( 68 - 68) =     24.34829  eV     1   --> A              
     e( 69 - 69) =     24.98902  eV     1   --> A              
     e( 70 - 70) =     25.23807  eV     1   --> A              

 **************************************************************************

 **************************************************************************

                    xk=(   0.28877,   0.16627,   0.00000  )

     Band symmetry, C_1 (1)     point group:

     e(  1 -  1) =     -8.84853  eV     1   --> A              
     e(  2 -  2) =     -8.83375  eV     1   --> A              
     e(  3 -  3) =     -8.77272  eV     1   --> A              
     e(  4 -  4) =     -8.75713  eV     1   --> A              
     e(  5 -  5) =     -1.22551  eV     1   --> A              
     e(  6 -  6) =     -1.18216  eV     1   --> A              
     e(  7 -  7) =      0.18630  eV     1   --> A              
     e(  8 -  8) =      0.19548  eV     1   --> A              
     e(  9 -  9) =      0.57244  eV     1   --> A              
     e( 10 - 10) =      0.63482  eV     1   --> A              
     e( 11 - 11) =      0.92706  eV     1   --> A              
     e( 12 - 12) =      1.14476  eV     1   --> A              
     e( 13 - 13) =      2.28466  eV     1   --> A              
     e( 14 - 14) =      2.29077  eV     1   --> A              
     e( 15 - 15) =      2.39356  eV     1   --> A              
     e( 16 - 16) =      2.39864  eV     1   --> A              
     e( 17 - 17) =      3.37939  eV     1   --> A              
     e( 18 - 18) =      3.57159  eV     1   --> A              
     e( 19 - 19) =      8.18857  eV     1   --> A              
     e( 20 - 20) =      8.24198  eV     1   --> A              
     e( 21 - 21) =      8.57916  eV     1   --> A              
     e( 22 - 22) =      8.68157  eV     1   --> A              
     e( 23 - 23) =      8.99336  eV     1   --> A              
     e( 24 - 24) =      9.35005  eV     1   --> A              
     e( 25 - 25) =     10.44867  eV     1   --> A              
     e( 26 - 26) =     10.76843  eV     1   --> A              
     e( 27 - 27) =     10.84515  eV     1   --> A              
     e( 28 - 28) =     11.85656  eV     1   --> A              
     e( 29 - 29) =     11.85725  eV     1   --> A              
     e( 30 - 30) =     12.25998  eV     1   --> A              
     e( 31 - 31) =     12.33047  eV     1   --> A              
     e( 32 - 32) =     12.37164  eV     1   --> A              
     e( 33 - 33) =     12.58755  eV     1   --> A              
     e( 34 - 34) =     12.63555  eV     1   --> A              
     e( 35 - 35) =     12.66532  eV     1   --> A              
     e( 36 - 36) =     13.27756  eV     1   --> A              
     e( 37 - 37) =     13.34538  eV     1   --> A              
     e( 38 - 38) =     13.41546  eV     1   --> A              
     e( 39 - 39) =     13.66604  eV     1   --> A              
     e( 40 - 40) =     15.16973  eV     1   --> A              
     e( 41 - 41) =     15.67166  eV     1   --> A              
     e( 42 - 42) =     16.03008  eV     1   --> A              
     e( 43 - 43) =     16.89552  eV     1   --> A              
     e( 44 - 44) =     17.26573  eV     1   --> A              
     e( 45 - 45) =     17.45251  eV     1   --> A              
     e( 46 - 46) =     17.48358  eV     1   --> A              
     e( 47 - 47) =     17.56004  eV     1   --> A              
     e( 48 - 48) =     18.46163  eV     1   --> A              
     e( 49 - 49) =     18.61096  eV     1   --> A              
     e( 50 - 50) =     18.86940  eV     1   --> A              
     e( 51 - 51) =     19.09380  eV     1   --> A              
     e( 52 - 52) =     19.62826  eV     1   --> A              
     e( 53 - 53) =     19.81081  eV     1   --> A              
     e( 54 - 54) =     19.97702  eV     1   --> A              
     e( 55 - 55) =     20.00741  eV     1   --> A              
     e( 56 - 56) =     20.19288  eV     1   --> A              
     e( 57 - 57) =     20.92760  eV     1   --> A              
     e( 58 - 58) =     21.00638  eV     1   --> A              
     e( 59 - 59) =     21.65967  eV     1   --> A              
     e( 60 - 60) =     21.85569  eV     1   --> A              
     e( 61 - 61) =     22.25653  eV     1   --> A              
     e( 62 - 62) =     22.60686  eV     1   --> A              
     e( 63 - 63) =     22.72696  eV     1   --> A              
     e( 64 - 64) =     23.35651  eV     1   --> A              
     e( 65 - 65) =     23.37286  eV     1   --> A              
     e( 66 - 66) =     23.68627  eV     1   --> A              
     e( 67 - 67) =     24.61370  eV     1   --> A              
     e( 68 - 68) =     24.80312  eV     1   --> A              
     e( 69 - 69) =     25.17995  eV     1   --> A              
     e( 70 - 70) =     25.52661  eV     1   --> A              

 **************************************************************************

 **************************************************************************

                    xk=(   0.30802,   0.17736,   0.00000  )

     Band symmetry, C_1 (1)     point group:

     e(  1 -  1) =     -8.72899  eV     1   --> A              
     e(  2 -  2) =     -8.71470  eV     1   --> A              
     e(  3 -  3) =     -8.65663  eV     1   --> A              
     e(  4 -  4) =     -8.64159  eV     1   --> A              
     e(  5 -  5) =     -1.14673  eV     1   --> A              
     e(  6 -  6) =     -1.11608  eV     1   --> A              
     e(  7 -  7) =     -0.00025  eV     1   --> A              
     e(  8 -  8) =      0.00557  eV     1   --> A              
     e(  9 -  9) =      0.41422  eV     1   --> A              
     e( 10 - 10) =      0.48808  eV     1   --> A              
     e( 11 - 11) =      0.97893  eV     1   --> A              
     e( 12 - 12) =      1.20289  eV     1   --> A              
     e( 13 - 13) =      2.06677  eV     1   --> A              
     e( 14 - 14) =      2.07301  eV     1   --> A              
     e( 15 - 15) =      2.18658  eV     1   --> A              
     e( 16 - 16) =      2.19138  eV     1   --> A              
     e( 17 - 17) =      3.43224  eV     1   --> A              
[...]
     e( 61 - 61) =     20.62980  eV     1   --> A'             
     e( 62 - 62) =     20.81416  eV     1   --> A'             
     e( 63 - 63) =     20.95994  eV     1   --> A''            
     e( 64 - 64) =     21.26238  eV     1   --> A''            
     e( 65 - 65) =     21.87566  eV     1   --> A'             
     e( 66 - 66) =     22.01640  eV     1   --> A'             
     e( 67 - 67) =     22.52634  eV     1   --> A'             
     e( 68 - 68) =     23.51741  eV     1   --> A'             
     e( 69 - 69) =     23.80336  eV     1   --> A'             
     e( 70 - 70) =     24.19059  eV     1   --> A''            

 **************************************************************************

 **************************************************************************

                    xk=(   0.05775,   0.00000,   0.00000  )

     Band symmetry, C_s (m)     point group:

     e(  1 -  1) =     -9.82019  eV     1   --> A'             
     e(  2 -  2) =     -9.80290  eV     1   --> A'             
     e(  3 -  3) =     -9.72086  eV     1   --> A'             
     e(  4 -  4) =     -9.70227  eV     1   --> A'             
     e(  5 -  5) =     -2.26741  eV     1   --> A'             
     e(  6 -  6) =     -2.18500  eV     1   --> A'             
     e(  7 -  7) =     -0.29525  eV     1   --> A'             
     e(  8 -  8) =     -0.03383  eV     1   --> A'             
     e(  9 -  9) =      2.64354  eV     1   --> A'             
     e( 10 - 10) =      3.05485  eV     1   --> A'             
     e( 11 - 11) =      3.84352  eV     1   --> A'             
     e( 12 - 12) =      3.84777  eV     1   --> A'             
     e( 13 - 13) =      3.85804  eV     1   --> A'             
     e( 14 - 14) =      3.86027  eV     1   --> A'             
     e( 15 - 15) =      3.99132  eV     1   --> A''            
     e( 16 - 16) =      3.99602  eV     1   --> A''            
     e( 17 - 17) =      4.02090  eV     1   --> A''            
     e( 18 - 18) =      4.02572  eV     1   --> A''            
     e( 19 - 19) =      7.65159  eV     1   --> A'             
     e( 20 - 20) =      8.59427  eV     1   --> A'             
     e( 21 - 21) =     10.57466  eV     1   --> A'             
     e( 22 - 22) =     10.59294  eV     1   --> A'             
     e( 23 - 23) =     10.65420  eV     1   --> A'             
     e( 24 - 24) =     10.74450  eV     1   --> A'             
     e( 25 - 25) =     10.80244  eV     1   --> A'             
     e( 26 - 26) =     11.18383  eV     1   --> A'             
     e( 27 - 27) =     11.28528  eV     1   --> A'             
     e( 28 - 28) =     11.43644  eV     1   --> A''            
     e( 29 - 29) =     11.44210  eV     1   --> A''            
     e( 30 - 30) =     11.81412  eV     1   --> A'             
     e( 31 - 31) =     11.81903  eV     1   --> A'             
     e( 32 - 32) =     11.99936  eV     1   --> A''            
     e( 33 - 33) =     12.00687  eV     1   --> A''            
     e( 34 - 34) =     12.29251  eV     1   --> A'             
     e( 35 - 35) =     13.95448  eV     1   --> A'             
     e( 36 - 36) =     14.03297  eV     1   --> A'             
     e( 37 - 37) =     14.11996  eV     1   --> A'             
     e( 38 - 38) =     14.23716  eV     1   --> A''            
     e( 39 - 39) =     14.27642  eV     1   --> A''            
     e( 40 - 40) =     14.85836  eV     1   --> A'             
     e( 41 - 41) =     15.43185  eV     1   --> A'             
     e( 42 - 42) =     15.70766  eV     1   --> A''            
     e( 43 - 43) =     15.76248  eV     1   --> A'             
     e( 44 - 44) =     15.79311  eV     1   --> A''            
     e( 45 - 45) =     16.19487  eV     1   --> A'             
     e( 46 - 46) =     16.44711  eV     1   --> A''            
     e( 47 - 47) =     16.48358  eV     1   --> A''            
     e( 48 - 48) =     16.55166  eV     1   --> A'             
     e( 49 - 49) =     17.69975  eV     1   --> A'             
     e( 50 - 50) =     18.19178  eV     1   --> A'             
     e( 51 - 51) =     18.68593  eV     1   --> A'             
     e( 52 - 52) =     18.71353  eV     1   --> A'             
     e( 53 - 53) =     18.82006  eV     1   --> A'             
     e( 54 - 54) =     18.88383  eV     1   --> A'             
     e( 55 - 55) =     19.27911  eV     1   --> A'             
     e( 56 - 56) =     19.80729  eV     1   --> A'             
     e( 57 - 57) =     19.94536  eV     1   --> A'             
     e( 58 - 58) =     20.00167  eV     1   --> A'             
     e( 59 - 59) =     20.12847  eV     1   --> A''            
     e( 60 - 60) =     20.20851  eV     1   --> A''            
     e( 61 - 61) =     20.70159  eV     1   --> A'             
     e( 62 - 62) =     20.90800  eV     1   --> A'             
     e( 63 - 63) =     21.00142  eV     1   --> A''            
     e( 64 - 64) =     21.26283  eV     1   --> A''            
     e( 65 - 65) =     21.74919  eV     1   --> A'             
     e( 66 - 66) =     21.99401  eV     1   --> A'             
     e( 67 - 67) =     22.28415  eV     1   --> A'             
     e( 68 - 68) =     23.26373  eV     1   --> A'             
     e( 69 - 69) =     24.07334  eV     1   --> A'             
     e( 70 - 70) =     24.32831  eV     1   --> A''            

 **************************************************************************

 **************************************************************************

                    xk=(   0.03850,   0.00000,   0.00000  )

     Band symmetry, C_s (m)     point group:

     e(  1 -  1) =     -9.83860  eV     1   --> A'             
     e(  2 -  2) =     -9.82127  eV     1   --> A'             
     e(  3 -  3) =     -9.73888  eV     1   --> A'             
     e(  4 -  4) =     -9.72026  eV     1   --> A'             
     e(  5 -  5) =     -2.28866  eV     1   --> A'             
     e(  6 -  6) =     -2.20600  eV     1   --> A'             
     e(  7 -  7) =     -0.31336  eV     1   --> A'             
     e(  8 -  8) =     -0.05089  eV     1   --> A'             
     e(  9 -  9) =      2.63399  eV     1   --> A'             
     e( 10 - 10) =      3.04840  eV     1   --> A'             
     e( 11 - 11) =      3.95720  eV     1   --> A'             
     e( 12 - 12) =      3.96155  eV     1   --> A'             
     e( 13 - 13) =      3.97972  eV     1   --> A'             
     e( 14 - 14) =      3.98246  eV     1   --> A'             
     e( 15 - 15) =      4.01954  eV     1   --> A''            
     e( 16 - 16) =      4.02395  eV     1   --> A''            
     e( 17 - 17) =      4.04834  eV     1   --> A''            
     e( 18 - 18) =      4.05285  eV     1   --> A''            
     e( 19 - 19) =      7.62080  eV     1   --> A'             
     e( 20 - 20) =      8.57419  eV     1   --> A'             
     e( 21 - 21) =     10.50518  eV     1   --> A'             
     e( 22 - 22) =     10.52024  eV     1   --> A'             
     e( 23 - 23) =     10.64897  eV     1   --> A'             
     e( 24 - 24) =     10.65906  eV     1   --> A'             
     e( 25 - 25) =     10.71817  eV     1   --> A'             
     e( 26 - 26) =     11.28929  eV     1   --> A'             
     e( 27 - 27) =     11.33763  eV     1   --> A'             
     e( 28 - 28) =     11.39799  eV     1   --> A''            
     e( 29 - 29) =     11.40317  eV     1   --> A''            
     e( 30 - 30) =     11.86491  eV     1   --> A'             
     e( 31 - 31) =     11.86936  eV     1   --> A'             
     e( 32 - 32) =     11.93776  eV     1   --> A''            
     e( 33 - 33) =     11.94496  eV     1   --> A''            
     e( 34 - 34) =     12.31644  eV     1   --> A'             
     e( 35 - 35) =     14.05663  eV     1   --> A'             
     e( 36 - 36) =     14.19385  eV     1   --> A'             
     e( 37 - 37) =     14.22541  eV     1   --> A'             
     e( 38 - 38) =     14.30389  eV     1   --> A''            
     e( 39 - 39) =     14.33701  eV     1   --> A''            
     e( 40 - 40) =     14.89442  eV     1   --> A'             
     e( 41 - 41) =     15.62574  eV     1   --> A'             
     e( 42 - 42) =     15.75339  eV     1   --> A''            
     e( 43 - 43) =     15.82311  eV     1   --> A'             
     e( 44 - 44) =     15.82841  eV     1   --> A''            
     e( 45 - 45) =     16.23698  eV     1   --> A'             
     e( 46 - 46) =     16.34371  eV     1   --> A''            
     e( 47 - 47) =     16.37810  eV     1   --> A''            
     e( 48 - 48) =     16.41954  eV     1   --> A'             
     e( 49 - 49) =     17.50183  eV     1   --> A'             
     e( 50 - 50) =     18.03056  eV     1   --> A'             
     e( 51 - 51) =     18.54330  eV     1   --> A'             
     e( 52 - 52) =     18.59614  eV     1   --> A'             
     e( 53 - 53) =     18.74168  eV     1   --> A'             
     e( 54 - 54) =     18.83235  eV     1   --> A'             
     e( 55 - 55) =     19.12841  eV     1   --> A'             
     e( 56 - 56) =     19.70529  eV     1   --> A'             
     e( 57 - 57) =     19.98341  eV     1   --> A'             
     e( 58 - 58) =     20.04510  eV     1   --> A'             
     e( 59 - 59) =     20.05789  eV     1   --> A''            
     e( 60 - 60) =     20.13243  eV     1   --> A''            
     e( 61 - 61) =     20.86958  eV     1   --> A'             
     e( 62 - 62) =     21.04009  eV     1   --> A''            
     e( 63 - 63) =     21.05035  eV     1   --> A'             
     e( 64 - 64) =     21.26202  eV     1   --> A''            
     e( 65 - 65) =     21.64564  eV     1   --> A'             
     e( 66 - 66) =     21.96947  eV     1   --> A'             
     e( 67 - 67) =     22.05615  eV     1   --> A'             
     e( 68 - 68) =     23.01481  eV     1   --> A'             
     e( 69 - 69) =     24.33106  eV     1   --> A'             
     e( 70 - 70) =     24.45138  eV     1   --> A''            

 **************************************************************************

 **************************************************************************

                    xk=(   0.01925,   0.00000,   0.00000  )

     Band symmetry, C_s (m)     point group:

     e(  1 -  1) =     -9.84967  eV     1   --> A'             
     e(  2 -  2) =     -9.83232  eV     1   --> A'             
     e(  3 -  3) =     -9.74972  eV     1   --> A'             
     e(  4 -  4) =     -9.73108  eV     1   --> A'             
     e(  5 -  5) =     -2.30144  eV     1   --> A'             
     e(  6 -  6) =     -2.21863  eV     1   --> A'             
     e(  7 -  7) =     -0.32426  eV     1   --> A'             
     e(  8 -  8) =     -0.06117  eV     1   --> A'             
     e(  9 -  9) =      2.62783  eV     1   --> A'             
     e( 10 - 10) =      3.04389  eV     1   --> A'             
     e( 11 - 11) =      4.02848  eV     1   --> A'             
     e( 12 - 12) =      4.03268  eV     1   --> A'             
     e( 13 - 13) =      4.03679  eV     1   --> A''            
     e( 14 - 14) =      4.04100  eV     1   --> A''            
     e( 15 - 15) =      4.05516  eV     1   --> A'             
     e( 16 - 16) =      4.05896  eV     1   --> A'             
     e( 17 - 17) =      4.06510  eV     1   --> A''            
     e( 18 - 18) =      4.06940  eV     1   --> A''            
     e( 19 - 19) =      7.60137  eV     1   --> A'             
     e( 20 - 20) =      8.56089  eV     1   --> A'             
     e( 21 - 21) =     10.44387  eV     1   --> A'             
     e( 22 - 22) =     10.45900  eV     1   --> A'             
     e( 23 - 23) =     10.60212  eV     1   --> A'             
     e( 24 - 24) =     10.66206  eV     1   --> A'             
     e( 25 - 25) =     10.66443  eV     1   --> A'             
     e( 26 - 26) =     11.36225  eV     1   --> A'             
     e( 27 - 27) =     11.37374  eV     1   --> A''            
     e( 28 - 28) =     11.37792  eV     1   --> A'             
     e( 29 - 29) =     11.37857  eV     1   --> A''            
     e( 30 - 30) =     11.89888  eV     1   --> A'             
     e( 31 - 31) =     11.90032  eV     1   --> A''            
     e( 32 - 32) =     11.90535  eV     1   --> A'             
     e( 33 - 33) =     11.90733  eV     1   --> A''            
     e( 34 - 34) =     12.33243  eV     1   --> A'             
     e( 35 - 35) =     14.03772  eV     1   --> A'             
     e( 36 - 36) =     14.33551  eV     1   --> A'             
     e( 37 - 37) =     14.35123  eV     1   --> A''            
     e( 38 - 38) =     14.36181  eV     1   --> A'             
     e( 39 - 39) =     14.37847  eV     1   --> A''            
     e( 40 - 40) =     14.90392  eV     1   --> A'             
     e( 41 - 41) =     15.76045  eV     1   --> A'             
     e( 42 - 42) =     15.78271  eV     1   --> A''            
     e( 43 - 43) =     15.85009  eV     1   --> A''            
     e( 44 - 44) =     15.86167  eV     1   --> A'             
     e( 45 - 45) =     16.26262  eV     1   --> A'             
     e( 46 - 46) =     16.27624  eV     1   --> A''            
     e( 47 - 47) =     16.30846  eV     1   --> A''            
     e( 48 - 48) =     16.33266  eV     1   --> A'             
     e( 49 - 49) =     17.37009  eV     1   --> A'             
     e( 50 - 50) =     17.91074  eV     1   --> A'             
     e( 51 - 51) =     18.45335  eV     1   --> A'             
     e( 52 - 52) =     18.52601  eV     1   --> A'             
     e( 53 - 53) =     18.69149  eV     1   --> A'             
     e( 54 - 54) =     18.79724  eV     1   --> A'             
     e( 55 - 55) =     19.02942  eV     1   --> A'             
     e( 56 - 56) =     19.62260  eV     1   --> A'             
     e( 57 - 57) =     20.01001  eV     1   --> A'             
     e( 58 - 58) =     20.01457  eV     1   --> A''            
     e( 59 - 59) =     20.07697  eV     1   --> A'             
     e( 60 - 60) =     20.08512  eV     1   --> A''            
     e( 61 - 61) =     21.03091  eV     1   --> A'             
     e( 62 - 62) =     21.06837  eV     1   --> A''            
     e( 63 - 63) =     21.19865  eV     1   --> A'             
     e( 64 - 64) =     21.25976  eV     1   --> A''            
     e( 65 - 65) =     21.57902  eV     1   --> A'             
     e( 66 - 66) =     21.85948  eV     1   --> A'             
     e( 67 - 67) =     21.95051  eV     1   --> A'             
     e( 68 - 68) =     22.82366  eV     1   --> A'             
     e( 69 - 69) =     24.52677  eV     1   --> A'             
     e( 70 - 70) =     24.54337  eV     1   --> A''            

 **************************************************************************

 **************************************************************************

                    xk=(   0.00000,   0.00000,   0.00000  )

     Band symmetry, C_s (m)     point group:

     e(  1 -  1) =     -9.85336  eV     1   --> A'             
     e(  2 -  2) =     -9.83601  eV     1   --> A'             
     e(  3 -  3) =     -9.75334  eV     1   --> A'             
     e(  4 -  4) =     -9.73468  eV     1   --> A'             
     e(  5 -  5) =     -2.30570  eV     1   --> A'             
     e(  6 -  6) =     -2.22284  eV     1   --> A'             
     e(  7 -  7) =     -0.32790  eV     1   --> A'             
     e(  8 -  8) =     -0.06460  eV     1   --> A'             
     e(  9 -  9) =      2.62572  eV     1   --> A'             
     e( 10 - 10) =      3.04230  eV     1   --> A'             
     e( 11 - 11) =      4.04259  eV     1   --> A''            
     e( 12 - 12) =      4.04673  eV     1   --> A''            
     e( 13 - 13) =      4.05276  eV     1   --> A'             
     e( 14 - 14) =      4.05689  eV     1   --> A'             
     e( 15 - 15) =      4.07074  eV     1   --> A''            
     e( 16 - 16) =      4.07497  eV     1   --> A''            
     e( 17 - 17) =      4.08077  eV     1   --> A'             
     e( 18 - 18) =      4.08500  eV     1   --> A'             
     e( 19 - 19) =      7.59472  eV     1   --> A'             
     e( 20 - 20) =      8.55622  eV     1   --> A'             
     e( 21 - 21) =     10.42227  eV     1   --> A'             
     e( 22 - 22) =     10.43701  eV     1   --> A'             
     e( 23 - 23) =     10.58227  eV     1   --> A'             
     e( 24 - 24) =     10.64254  eV     1   --> A'             
     e( 25 - 25) =     10.66958  eV     1   --> A'             
     e( 26 - 26) =     11.36546  eV     1   --> A''            
     e( 27 - 27) =     11.37016  eV     1   --> A''            
     e( 28 - 28) =     11.38804  eV     1   --> A'             
     e( 29 - 29) =     11.39275  eV     1   --> A'             
     e( 30 - 30) =     11.88776  eV     1   --> A''            
     e( 31 - 31) =     11.89469  eV     1   --> A''            
     e( 32 - 32) =     11.91102  eV     1   --> A'             
     e( 33 - 33) =     11.91795  eV     1   --> A'             
     e( 34 - 34) =     12.33802  eV     1   --> A'             
     e( 35 - 35) =     14.02839  eV     1   --> A'             
     e( 36 - 36) =     14.36857  eV     1   --> A''            
     e( 37 - 37) =     14.38915  eV     1   --> A'             
     e( 38 - 38) =     14.39312  eV     1   --> A''            
     e( 39 - 39) =     14.41364  eV     1   --> A'             
     e( 40 - 40) =     14.90278  eV     1   --> A'             
     e( 41 - 41) =     15.79285  eV     1   --> A''            
     e( 42 - 42) =     15.80996  eV     1   --> A'             
     e( 43 - 43) =     15.85737  eV     1   --> A''            
     e( 44 - 44) =     15.87444  eV     1   --> A'             
     e( 45 - 45) =     16.25273  eV     1   --> A''            
     e( 46 - 46) =     16.27076  eV     1   --> A'             
     e( 47 - 47) =     16.28397  eV     1   --> A''            
     e( 48 - 48) =     16.30207  eV     1   --> A'             
     e( 49 - 49) =     17.32378  eV     1   --> A'             
     e( 50 - 50) =     17.86607  eV     1   --> A'             
     e( 51 - 51) =     18.42270  eV     1   --> A'             
     e( 52 - 52) =     18.50244  eV     1   --> A'             
     e( 53 - 53) =     18.67444  eV     1   --> A'             
     e( 54 - 54) =     18.78479  eV     1   --> A'             
     e( 55 - 55) =     18.99493  eV     1   --> A'             
     e( 56 - 56) =     19.59200  eV     1   --> A'             
     e( 57 - 57) =     19.99998  eV     1   --> A''            
     e( 58 - 58) =     20.01966  eV     1   --> A'             
     e( 59 - 59) =     20.06905  eV     1   --> A''            
     e( 60 - 60) =     20.08842  eV     1   --> A'             
     e( 61 - 61) =     21.07895  eV     1   --> A''            
     e( 62 - 62) =     21.09864  eV     1   --> A'             
     e( 63 - 63) =     21.25843  eV     1   --> A''            
     e( 64 - 64) =     21.27764  eV     1   --> A'             
     e( 65 - 65) =     21.55606  eV     1   --> A'             
     e( 66 - 66) =     21.76405  eV     1   --> A'             
     e( 67 - 67) =     21.94346  eV     1   --> A'             
     e( 68 - 68) =     22.74920  eV     1   --> A'             
     e( 69 - 69) =     24.57934  eV     1   --> A''            
     e( 70 - 70) =     24.59888  eV     1   --> A'             

 **************************************************************************
 
     BANDS        :      8.60s CPU     13.27s WALL

 
   This run was terminated on:  15:20: 8  17Jun2023            

=------------------------------------------------------------------------------=
   JOB DONE.
=------------------------------------------------------------------------------=
