
     Program PWSCF v.7.0 starts on 17Jun2023 at 15:14:57 

     This program is part of the open-source Quantum ESPRESSO suite
     for quantum simulation of materials; please cite
         "P. Giannozzi et al., J. Phys.:Condens. Matter 21 395502 (2009);
         "P. Giannozzi et al., J. Phys.:Condens. Matter 29 465901 (2017);
         "P. Giannozzi et al., J. Chem. Phys. 152 154105 (2020);
          URL http://www.quantum-espresso.org", 
     in publications or presentations arising from this work. More details at
     http://www.quantum-espresso.org/quote

     Parallel version (MPI), running on    16 processors

     MPI processes distributed on     1 nodes
     R & G space division:  proc/nbgrp/npool/nimage =      16
     3909 MiB available memory on the printing compute node when the environment starts
 
     Waiting for input...
     Reading input from standard input

     Current dimensions of program PWSCF are:
     Max number of different atomic species (ntypx) = 10
     Max number of k-points (npk) =  40000
     Max angular momentum in pseudopotentials (lmaxx) =  4
     Message from routine volume:
     axis vectors are left-handed

     Atomic positions and unit cell read from directory:
     ./work/Al2S2.save/
     Atomic positions from file used, from input discarded
 
     Message from routine volume:
     axis vectors are left-handed
     file Al.pbe-n-kjpaw_psl.1.0.0.UPF: wavefunction(s)  3S 3P renormalized
     file S.pbe-n-kjpaw_psl.1.0.0.UPF: wavefunction(s)  3S 3P renormalized
     Message from routine setup:
     using ibrav=0 with symmetry is DISCOURAGED, use correct ibrav instead

     Subspace diagonalization in iterative solution of the eigenvalue problem:
     a serial algorithm will be used

 
     Parallelization info
     --------------------
     sticks:   dense  smooth     PW     G-vecs:    dense   smooth      PW
     Min          39      39     11                 4521     4521     717
     Max          40      40     12                 4527     4527     734
     Sum         625     625    187                72391    72391   11673
 
     Using Slab Decomposition
 


     bravais-lattice index     =            0
     lattice parameter (alat)  =       6.1344  a.u.
     unit-cell volume          =    1154.0801 (a.u.)^3
     number of atoms/cell      =            8
     number of atomic types    =            2
     number of electrons       =        36.00
     number of Kohn-Sham states=           70
     kinetic-energy cutoff     =      60.0000  Ry
     charge density cutoff     =     240.0000  Ry
     Exchange-correlation= SLA  PW   PBX  PBC
                           (   1   4   3   4   0   0   0)

     celldm(1)=   6.134387  celldm(2)=   0.000000  celldm(3)=   0.000000
     celldm(4)=   0.000000  celldm(5)=   0.000000  celldm(6)=   0.000000

     crystal axes: (cart. coord. in units of alat)
               a(1) = (   0.865734   0.500504   0.000000 )  
               a(2) = (   0.865734  -0.500504   0.000000 )  
               a(3) = (   0.000000   0.000000   5.768998 )  

     reciprocal axes: (cart. coord. in units 2 pi/alat)
               b(1) = (  0.577544  0.998993  0.000000 )  
               b(2) = (  0.577544 -0.998993  0.000000 )  
               b(3) = (  0.000000  0.000000  0.173340 )  


     PseudoPot. # 1 for Al read from file:
     /home/mainadmin/research/danu/pseudo/Al.pbe-n-kjpaw_psl.1.0.0.UPF
     MD5 check sum: 502b6b27b9c6270cab5dd1084b96fa6d
     Pseudo is Projector augmented-wave + core cor, Zval =  3.0
     Generated using &quot;atomic&quot; code by A. Dal Corso  v.6.3
     Shape of augmentation charge: PSQ
     Using radial grid of 1135 points,  6 beta functions with: 
                l(1) =   0
                l(2) =   0
                l(3) =   1
                l(4) =   1
                l(5) =   2
                l(6) =   2
     Q(r) pseudized with 0 coefficients 


     PseudoPot. # 2 for S  read from file:
     /home/mainadmin/research/danu/pseudo/S.pbe-n-kjpaw_psl.1.0.0.UPF
     MD5 check sum: fb45dfebcf3e72a4e1bd4a866ec2e262
     Pseudo is Projector augmented-wave + core cor, Zval =  6.0
     Generated using &quot;atomic&quot; code by A. Dal Corso  v.6.3
     Shape of augmentation charge: PSQ
     Using radial grid of 1151 points,  6 beta functions with: 
                l(1) =   0
                l(2) =   0
                l(3) =   1
                l(4) =   1
                l(5) =   2
                l(6) =   2
     Q(r) pseudized with 0 coefficients 


     atomic species   valence    mass     pseudopotential
        Al             3.00    26.98100     Al( 1.00)
        S              6.00    32.06500     S ( 1.00)

      2 Sym. Ops. (no inversion) found



   Cartesian axes

     site n.     atom                  positions (alat units)
         1           S   tau(   1) = (   0.5771561   0.0000000   0.0000000  )
         2           Al  tau(   2) = (   0.0000000   0.0000000   0.3772115  )
         3           Al  tau(   3) = (   0.0000000   0.0000000   1.1808034  )
         4           S   tau(   4) = (   0.5771561   0.0000000   1.5581054  )
         5           S   tau(   5) = (   1.1543123   0.0000000   2.8846630  )
         6           Al  tau(   6) = (   0.5771561   0.0000000   3.2620132  )
         7           Al  tau(   7) = (   0.5771561   0.0000000   4.0652664  )
         8           S   tau(   8) = (   1.1543123   0.0000000   4.4424402  )

     number of k points=    91
                       cart. coord. in units 2pi/alat
        k(    1) = (   0.0000000   0.0000000   0.0000000), wk =   0.0219780
        k(    2) = (   0.0192515   0.0110848   0.0000000), wk =   0.0219780
        k(    3) = (   0.0385030   0.0221697   0.0000000), wk =   0.0219780
        k(    4) = (   0.0577544   0.0332545   0.0000000), wk =   0.0219780
        k(    5) = (   0.0770059   0.0443393   0.0000000), wk =   0.0219780
        k(    6) = (   0.0962574   0.0554241   0.0000000), wk =   0.0219780
        k(    7) = (   0.1155089   0.0665090   0.0000000), wk =   0.0219780
        k(    8) = (   0.1347604   0.0775938   0.0000000), wk =   0.0219780
        k(    9) = (   0.1540119   0.0886786   0.0000000), wk =   0.0219780
        k(   10) = (   0.1732633   0.0997634   0.0000000), wk =   0.0219780
        k(   11) = (   0.1925148   0.1108483   0.0000000), wk =   0.0219780
        k(   12) = (   0.2117663   0.1219331   0.0000000), wk =   0.0219780
        k(   13) = (   0.2310178   0.1330179   0.0000000), wk =   0.0219780
        k(   14) = (   0.2502693   0.1441027   0.0000000), wk =   0.0219780
        k(   15) = (   0.2695208   0.1551876   0.0000000), wk =   0.0219780
        k(   16) = (   0.2887722   0.1662724   0.0000000), wk =   0.0219780
        k(   17) = (   0.3080237   0.1773572   0.0000000), wk =   0.0219780
        k(   18) = (   0.3272752   0.1884420   0.0000000), wk =   0.0219780
        k(   19) = (   0.3465267   0.1995269   0.0000000), wk =   0.0219780
        k(   20) = (   0.3657782   0.2106117   0.0000000), wk =   0.0219780
        k(   21) = (   0.3850296   0.2216965   0.0000000), wk =   0.0219780
        k(   22) = (   0.4042811   0.2327813   0.0000000), wk =   0.0219780
        k(   23) = (   0.4235326   0.2438662   0.0000000), wk =   0.0219780
        k(   24) = (   0.4427841   0.2549510   0.0000000), wk =   0.0219780
        k(   25) = (   0.4620356   0.2660358   0.0000000), wk =   0.0219780
        k(   26) = (   0.4812871   0.2771206   0.0000000), wk =   0.0219780
        k(   27) = (   0.5005385   0.2882055   0.0000000), wk =   0.0219780
        k(   28) = (   0.5197900   0.2992903   0.0000000), wk =   0.0219780
        k(   29) = (   0.5390415   0.3103751   0.0000000), wk =   0.0219780
        k(   30) = (   0.5582930   0.3214599   0.0000000), wk =   0.0219780
        k(   31) = (   0.5775445   0.3325448   0.0000000), wk =   0.0219780
        k(   32) = (   0.5775445   0.3214599   0.0000000), wk =   0.0219780
        k(   33) = (   0.5775445   0.3103751   0.0000000), wk =   0.0219780
        k(   34) = (   0.5775445   0.2992903   0.0000000), wk =   0.0219780
        k(   35) = (   0.5775445   0.2882055   0.0000000), wk =   0.0219780
        k(   36) = (   0.5775445   0.2771206   0.0000000), wk =   0.0219780
        k(   37) = (   0.5775445   0.2660358   0.0000000), wk =   0.0219780
        k(   38) = (   0.5775445   0.2549510   0.0000000), wk =   0.0219780
        k(   39) = (   0.5775445   0.2438662   0.0000000), wk =   0.0219780
        k(   40) = (   0.5775445   0.2327813   0.0000000), wk =   0.0219780
        k(   41) = (   0.5775445   0.2216965   0.0000000), wk =   0.0219780
        k(   42) = (   0.5775445   0.2106117   0.0000000), wk =   0.0219780
        k(   43) = (   0.5775445   0.1995269   0.0000000), wk =   0.0219780
        k(   44) = (   0.5775445   0.1884420   0.0000000), wk =   0.0219780
        k(   45) = (   0.5775445   0.1773572   0.0000000), wk =   0.0219780
        k(   46) = (   0.5775445   0.1662724   0.0000000), wk =   0.0219780
        k(   47) = (   0.5775445   0.1551876   0.0000000), wk =   0.0219780
        k(   48) = (   0.5775445   0.1441027   0.0000000), wk =   0.0219780
        k(   49) = (   0.5775445   0.1330179   0.0000000), wk =   0.0219780
        k(   50) = (   0.5775445   0.1219331   0.0000000), wk =   0.0219780
        k(   51) = (   0.5775445   0.1108483   0.0000000), wk =   0.0219780
        k(   52) = (   0.5775445   0.0997634   0.0000000), wk =   0.0219780
        k(   53) = (   0.5775445   0.0886786   0.0000000), wk =   0.0219780
        k(   54) = (   0.5775445   0.0775938   0.0000000), wk =   0.0219780
        k(   55) = (   0.5775445   0.0665090   0.0000000), wk =   0.0219780
        k(   56) = (   0.5775445   0.0554241   0.0000000), wk =   0.0219780
        k(   57) = (   0.5775445   0.0443393   0.0000000), wk =   0.0219780
        k(   58) = (   0.5775445   0.0332545   0.0000000), wk =   0.0219780
        k(   59) = (   0.5775445   0.0221697   0.0000000), wk =   0.0219780
        k(   60) = (   0.5775445   0.0110848   0.0000000), wk =   0.0219780
        k(   61) = (   0.5775445   0.0000000   0.0000000), wk =   0.0219780
        k(   62) = (   0.5582930   0.0000000   0.0000000), wk =   0.0219780
        k(   63) = (   0.5390415   0.0000000   0.0000000), wk =   0.0219780
        k(   64) = (   0.5197900   0.0000000   0.0000000), wk =   0.0219780
        k(   65) = (   0.5005385   0.0000000   0.0000000), wk =   0.0219780
        k(   66) = (   0.4812871   0.0000000   0.0000000), wk =   0.0219780
        k(   67) = (   0.4620356   0.0000000   0.0000000), wk =   0.0219780
        k(   68) = (   0.4427841   0.0000000   0.0000000), wk =   0.0219780
        k(   69) = (   0.4235326   0.0000000   0.0000000), wk =   0.0219780
        k(   70) = (   0.4042811   0.0000000   0.0000000), wk =   0.0219780
        k(   71) = (   0.3850296   0.0000000   0.0000000), wk =   0.0219780
        k(   72) = (   0.3657782   0.0000000   0.0000000), wk =   0.0219780
        k(   73) = (   0.3465267   0.0000000   0.0000000), wk =   0.0219780
        k(   74) = (   0.3272752   0.0000000   0.0000000), wk =   0.0219780
        k(   75) = (   0.3080237   0.0000000   0.0000000), wk =   0.0219780
        k(   76) = (   0.2887722   0.0000000   0.0000000), wk =   0.0219780
        k(   77) = (   0.2695208   0.0000000   0.0000000), wk =   0.0219780
        k(   78) = (   0.2502693   0.0000000   0.0000000), wk =   0.0219780
        k(   79) = (   0.2310178   0.0000000   0.0000000), wk =   0.0219780
        k(   80) = (   0.2117663   0.0000000   0.0000000), wk =   0.0219780
        k(   81) = (   0.1925148   0.0000000   0.0000000), wk =   0.0219780
        k(   82) = (   0.1732633   0.0000000   0.0000000), wk =   0.0219780
        k(   83) = (   0.1540119   0.0000000   0.0000000), wk =   0.0219780
        k(   84) = (   0.1347604   0.0000000   0.0000000), wk =   0.0219780
        k(   85) = (   0.1155089   0.0000000   0.0000000), wk =   0.0219780
        k(   86) = (   0.0962574   0.0000000   0.0000000), wk =   0.0219780
        k(   87) = (   0.0770059   0.0000000   0.0000000), wk =   0.0219780
        k(   88) = (   0.0577544   0.0000000   0.0000000), wk =   0.0219780
        k(   89) = (   0.0385030   0.0000000   0.0000000), wk =   0.0219780
        k(   90) = (   0.0192515   0.0000000   0.0000000), wk =   0.0219780
        k(   91) = (   0.0000000   0.0000000   0.0000000), wk =   0.0219780

     Dense  grid:    72391 G-vectors     FFT dimensions: (  32,  32, 180)

     Estimated max dynamical RAM per process >      19.05 MB

     Estimated total dynamical RAM >     304.82 MB

     The potential is recalculated from file :
     ./work/Al2S2.save/charge-density

     Starting wfcs are   32 randomized atomic wfcs +   38 random wfcs
     Checking if some PAW data can be deallocated... 

     Band Structure Calculation
     Davidson diagonalization with overlap
     c_bands:  1 eigenvalues not converged
     c_bands:  1 eigenvalues not converged
     c_bands:  1 eigenvalues not converged
     c_bands:  1 eigenvalues not converged
     c_bands:  1 eigenvalues not converged
     c_bands:  1 eigenvalues not converged

     ethr =  2.78E-11,  avg # of iterations = 74.1

     total cpu time spent up to now is      292.9 secs

     End of band structure calculation

          k = 0.0000 0.0000 0.0000 (  9061 PWs)   bands (ev):

    -9.8534  -9.8360  -9.7533  -9.7347  -2.3057  -2.2228  -0.3279  -0.0646
     2.6257   3.0423   4.0426   4.0467   4.0528   4.0569   4.0707   4.0750
     4.0808   4.0850   7.5947   8.5562  10.4223  10.4370  10.5823  10.6425
    10.6696  11.3655  11.3702  11.3880  11.3928  11.8878  11.8947  11.9110
    11.9179  12.3380  14.0284  14.3686  14.3892  14.3931  14.4136  14.9028
    15.7929  15.8100  15.8574  15.8744  16.2527  16.2708  16.2840  16.3021
    17.3238  17.8661  18.4227  18.5024  18.6744  18.7848  18.9949  19.5920
    20.0000  20.0197  20.0690  20.0884  21.0790  21.0986  21.2584  21.2776
    21.5561  21.7640  21.9435  22.7492  24.5793  24.5989

          k = 0.0193 0.0111 0.0000 (  9057 PWs)   bands (ev):

    -9.8484  -9.8311  -9.7485  -9.7299  -2.3000  -2.2172  -0.3231  -0.0600
     2.6285   3.0444   4.0170   4.0211   4.0384   4.0426   4.0434   4.0470
     4.0667   4.0709   7.6036   8.5624  10.4511  10.4664  10.6087  10.6626
    10.6686  11.3453  11.3631  11.3851  11.3912  11.8849  11.8913  11.9146
    11.9213  12.3306  14.0403  14.3120  14.3356  14.3561  14.3795  14.9036
    15.7392  15.7849  15.8450  15.8600  16.2557  16.2888  16.3168  16.3423
    17.3848  17.9250  18.4634  18.5337  18.6970  18.8012  19.0405  19.6323
    19.9993  20.0266  20.0671  20.0971  21.0061  21.0669  21.1774  21.2636
    21.5864  21.8851  21.9527  22.8467  24.5011  24.5325

          k = 0.0385 0.0222 0.0000 (  9063 PWs)   bands (ev):

    -9.8337  -9.8164  -9.7341  -9.7155  -2.2830  -2.2004  -0.3086  -0.0464
     2.6366   3.0502   3.9240   3.9280   3.9447   3.9465   4.0147   4.0189
     4.0437   4.0479   7.6292   8.5798  10.5321  10.5470  10.6411  10.6838
    10.7427  11.2493  11.3112  11.4174  11.4233  11.8410  11.8455  11.9642
    11.9686  12.3103  14.0575  14.1387  14.1682  14.2974  14.3101  14.8913
    15.5682  15.7425  15.8050  15.8218  16.2391  16.3605  16.3923  16.4697
    17.5569  18.0788  18.5818  18.6264  18.7636  18.8469  19.1692  19.7363
    19.9695  20.0190  20.0938  20.1525  20.8176  20.9481  21.0916  21.2538
    21.6738  21.9765  22.1232  23.0880  24.2871  24.3500

          k = 0.0578 0.0333 0.0000 (  9083 PWs)   bands (ev):

    -9.8092  -9.7920  -9.7101  -9.6916  -2.2548  -2.1725  -0.2845  -0.0237
     2.6487   3.0578   3.7780   3.7809   3.7872   3.7883   3.9760   3.9802
     4.0061   4.0105   7.6693   8.6054  10.5773  10.6484  10.6840  10.7950
    10.8528  11.1039  11.2353  11.4731  11.4841  11.7697  11.7721  12.0425
    12.0564  12.2905  13.8727  13.9536  14.0691  14.1912  14.2492  14.8630
    15.3322  15.6724  15.7418  15.7639  16.2279  16.4478  16.4829  16.6746
    17.8126  18.2794  18.7635  18.7827  18.8673  18.9125  19.3572  19.8416
    19.9294  19.9629  20.1964  20.2362  20.6472  20.7928  21.0652  21.2396
    21.8089  22.0042  22.3954  23.3918  24.0147  24.1042

          k = 0.0770 0.0443 0.0000 (  9089 PWs)   bands (ev):

    -9.7751  -9.7579  -9.6767  -9.6582  -2.2154  -2.1336  -0.2510   0.0077
     2.6618   3.0612   3.5797   3.5837   3.5943   3.5959   3.9214   3.9256
     3.9533   3.9577   7.7213   8.6356  10.4945  10.7552  10.8223  10.9239
    10.9503  10.9802  11.1536  11.5432  11.5722  11.6799  11.6863  12.0812
    12.1935  12.3368  13.6089  13.7348  13.9657  14.0356  14.2682  14.8313
    15.0680  15.5793  15.6586  15.6904  16.2335  16.5323  16.5717  16.9325
    18.1202  18.4815  18.9559  18.9719  19.0158  19.0174  19.5695  19.8438
    19.8975  19.9106  20.3328  20.3401  20.6015  20.7078  21.0783  21.2397
    21.9757  22.0223  22.6859  23.7034  23.7269  23.8655

          k = 0.0963 0.0554 0.0000 (  9095 PWs)   bands (ev):

    -9.7315  -9.7144  -9.6340  -9.6157  -2.1651  -2.0839  -0.2085   0.0474
     2.6682   3.0381   3.3365   3.3438   3.3847   3.4090   3.8506   3.8549
     3.8849   3.8893   7.7829   8.6675  10.3678  10.6586  10.9550  10.9769
    11.0487  11.0801  11.1001  11.5853  11.6032  11.6041  11.6804  12.0301
    12.3756  12.5088  13.3631  13.5277  13.8329  13.8811  14.3124  14.8018
    14.8026  15.4676  15.5511  15.6160  16.2581  16.6053  16.6472  17.2189
    18.4525  18.6567  18.9919  19.1198  19.1983  19.2780  19.7735  19.7920
    19.8888  19.9174  20.4349  20.5059  20.5977  20.7147  21.2139  21.3010
    22.0051  22.1578  22.9910  23.4621  23.6780  23.9811

          k = 0.1155 0.0665 0.0000 (  9103 PWs)   bands (ev):

    -9.6786  -9.6615  -9.5823  -9.5640  -2.1041  -2.0238  -0.1572   0.0951
     2.6457   2.9228   3.0672   3.0781   3.1846   3.2936   3.7633   3.7675
     3.8006   3.8051   7.8526   8.6989  10.2048  10.4449  10.9589  11.0955
    11.1161  11.1420  11.1773  11.5074  11.5562  11.6063  11.7891  11.9368
    12.5899  12.7604  13.1563  13.3242  13.7436  13.7950  14.3551  14.5616
    14.7743  15.3371  15.4191  15.5584  16.2981  16.6605  16.7015  17.5085
    18.7708  18.7983  18.9953  19.1303  19.3761  19.4651  19.8750  19.9653
    19.9974  20.0463  20.5271  20.5616  20.6712  20.7041  21.4753  21.5224
    21.9616  22.2870  23.2825  23.3048  23.5713  24.0312

          k = 0.1348 0.0776 0.0000 (  9101 PWs)   bands (ev):

    -9.6166  -9.5997  -9.5217  -9.5035  -2.0327  -1.9536  -0.0976   0.1498
     2.5437   2.6984   2.7808   2.7955   3.0529   3.2744   3.6593   3.6633
     3.7003   3.7049   7.9294   8.7281  10.0160  10.2138  10.8477  11.1660
    11.1755  11.2054  11.2311  11.4745  11.5176  11.5819  11.8357  11.8778
    12.7999  12.9711  13.0602  13.1067  13.7673  13.8343  14.3790  14.3956
    14.7510  15.1914  15.2684  15.5321  16.3459  16.6946  16.7293  17.7705
    18.8527  18.9095  19.0199  19.2762  19.4564  19.5121  20.0812  20.1608
    20.2853  20.3249  20.5117  20.6044  20.6551  20.7897  21.8050  21.9049
    21.9141  22.2900  23.2600  23.5536  23.6104  23.8464

          k = 0.1540 0.0887 0.0000 (  9115 PWs)   bands (ev):

    -9.5459  -9.5292  -9.4526  -9.4346  -1.9516  -1.8739  -0.0306   0.2106
     2.3404   2.4291   2.4848   2.5041   3.0179   3.2935   3.5392   3.5425
     3.5842   3.5889   8.0123   8.7535   9.8106   9.9764  10.6923  11.1167
    11.1201  11.2241  11.3463  11.4216  11.4496  11.6661  11.7791  11.9456
    12.7802  12.8810  12.9399  13.3822  13.9043  13.9848  14.2990  14.4573
    14.7485  15.0446  15.1131  15.5494  16.3887  16.7122  16.7269  17.9719
    18.7323  18.9925  19.1045  19.4776  19.5092  19.6178  20.2078  20.3573
    20.5641  20.5668  20.6266  20.6479  20.7424  20.8563  21.8926  22.2155
    22.2259  22.3360  23.2852  23.6398  23.7649  23.8577

          k = 0.1733 0.0998 0.0000 (  9105 PWs)   bands (ev):

    -9.4669  -9.4503  -9.3753  -9.3576  -1.8612  -1.7854   0.0427   0.2754
     2.0833   2.1453   2.1856   2.2109   3.0375   3.3208   3.4054   3.4085
     3.4526   3.4573   8.1003   8.7735   9.5944   9.7361  10.4956  11.0130
    11.0427  11.0495  11.3497  11.4626  11.4968  11.7737  11.8182  12.0081
    12.5858  12.6621  12.9546  13.6905  14.0376  14.1514  14.3107  14.6174
    14.8271  14.9086  15.0214  15.6248  16.4043  16.6926  16.7339  18.1018
    18.6162  19.0456  19.2566  19.4583  19.5260  19.9757  20.1618  20.4385
    20.5760  20.6593  20.6884  20.8738  21.0996  21.1802  21.8617  22.2252
    22.7003  22.7886  23.2006  23.7535  23.9061  23.9465

          k = 0.1925 0.1108 0.0000 (  9105 PWs)   bands (ev):

    -9.3799  -9.3635  -9.2904  -9.2729  -1.7627  -1.6892   0.1204   0.3412
     1.8084   1.8593   1.8892   1.9233   3.0787   3.2389   3.2542   3.3061
     3.3110   3.3771   8.1918   8.7864   9.3708   9.4934  10.2665  10.7362
    10.9719  10.9783  11.2001  11.5823  11.6130  11.8911  11.9155  12.0782
    12.4017  12.4629  12.8683  13.9253  14.0618  14.2074  14.2667  14.7917
    14.9342  15.0759  15.1423  15.7763  16.3723  16.6301  16.7833  18.1856
    18.5295  19.0651  19.4248  19.4418  19.5583  20.0736  20.2440  20.4609
    20.5162  20.5597  20.9381  21.1987  21.3596  21.6048  21.9098  22.3228
    23.1405  23.1898  23.2420  23.6852  23.8858  24.0969

          k = 0.2118 0.1219 0.0000 (  9109 PWs)   bands (ev):

    -9.2856  -9.2694  -9.1983  -9.1811  -1.6573  -1.5868   0.1991   0.4017
     1.5319   1.5784   1.6022   1.6505   3.0709   3.0744   3.1457   3.1476
     3.1508   3.4166   8.2847   8.7901   9.1416   9.2483  10.0169  10.4452
    10.9076  10.9113  11.0438  11.7057  11.7383  12.0136  12.0371  12.1567
    12.2407  12.2969  12.7427  14.0006  14.0036  14.1133  14.1551  14.7686
    15.3466  15.4565  15.4665  16.0201  16.3011  16.5443  16.8632  18.2546
    18.4719  19.0467  19.3801  19.5957  19.5983  20.0119  20.3066  20.3072
    20.4412  20.8176  21.2239  21.3827  21.5293  21.9630  22.1179  22.4911
    23.2169  23.5312  23.5780  23.6436  23.9141  24.2009

          k = 0.2310 0.1330 0.0000 (  9101 PWs)   bands (ev):

    -9.1845  -9.1686  -9.0997  -9.0828  -1.5469  -1.4806   0.2712   0.4437
     1.2625   1.3086   1.3346   1.4084   2.8931   2.8979   2.9727   2.9777
     3.1992   3.4592   8.3756   8.7827   8.9077   9.0003   9.7573  10.1548
    10.8083  10.8610  10.9312  11.8261  11.8624  12.1167  12.1360  12.1469
    12.1727  12.2735  12.6217  13.8967  13.9004  13.9177  14.0500  14.8483
    15.7725  15.8536  15.9260  16.2367  16.3544  16.4429  16.9639  18.3261
    18.4391  18.9915  19.3170  19.6359  19.6791  19.9667  20.1767  20.3170
    20.4125  21.1390  21.3016  21.5234  21.8525  22.0297  22.4217  22.7419
    23.4260  23.4747  23.6430  23.8092  24.3447  24.4364

          k = 0.2503 0.1441 0.0000 (  9095 PWs)   bands (ev):

    -9.0773  -9.0618  -8.9953  -8.9788  -1.4346  -1.3738   0.3187   0.4395
     1.0075   1.0561   1.1063   1.2262   2.6998   2.7054   2.7885   2.7936
     3.2601   3.5007   8.4595   8.6702   8.7496   8.7625   9.4960   9.8725
    10.6711  10.8220  10.8820  11.9038  11.9260  12.0943  12.1059  12.2413
    12.3188  12.3735  12.5415  13.6897  13.7373  13.7566  13.9210  14.9598
    15.9379  16.2646  16.2839  16.4430  16.4575  16.7537  17.0794  18.4001
    18.4338  18.9155  19.2316  19.6572  19.7197  19.9385  20.0889  20.2233
    20.5870  21.1815  21.4054  21.8162  21.9845  22.1628  22.6134  22.9337
    23.3637  23.7868  23.7889  23.9507  24.7772  24.8237

          k = 0.2695 0.1552 0.0000 (  9093 PWs)   bands (ev):

    -8.9650  -8.9498  -8.8860  -8.8699  -1.3251  -1.2717   0.3019   0.3552
     0.7744   0.8283   0.9586   1.1396   2.4964   2.5023   2.5949   2.6000
     3.3212   3.5388   8.4300   8.4964   8.5301   8.7287   9.2396   9.6031
    10.5438  10.7923  10.8582  11.8868  11.8888  12.1946  12.2152  12.2807
    12.4738  12.4819  12.5581  13.4749  13.5401  13.5932  13.7866  15.0690
    15.8296  16.1738  16.6339  16.8922  16.9578  17.1764  17.2133  18.4287
    18.5062  18.8580  19.1393  19.6516  19.7580  19.9382  20.0371  20.1837
    20.7923  21.0481  21.5827  21.9220  22.0732  22.4557  22.6310  23.1515
    23.3138  23.7242  24.2764  24.3483  24.9890  25.2381

          k = 0.2888 0.1663 0.0000 (  9087 PWs)   bands (ev):

    -8.8485  -8.8337  -8.7727  -8.7571  -1.2255  -1.1822   0.1863   0.1955
     0.5724   0.6348   0.9271   1.1448   2.2847   2.2908   2.3936   2.3986
     3.3794   3.5716   8.1886   8.2420   8.5792   8.6816   8.9934   9.3501
    10.4487  10.7684  10.8452  11.8566  11.8573  12.2600  12.3305  12.3716
    12.5875  12.6355  12.6653  13.2776  13.3454  13.4155  13.6660  15.1697
    15.6717  16.0301  16.8955  17.2657  17.4525  17.4836  17.5600  18.4616
    18.6110  18.8694  19.0938  19.6283  19.8108  19.9770  20.0074  20.1929
    20.9276  21.0064  21.6597  21.8557  22.2565  22.6069  22.7270  23.3565
    23.3729  23.6863  24.6137  24.8031  25.1799  25.5266

          k = 0.3080 0.1774 0.0000 (  9075 PWs)   bands (ev):

    -8.7290  -8.7147  -8.6566  -8.6416  -1.1467  -1.1161  -0.0003   0.0056
     0.4142   0.4881   0.9789   1.2029   2.0668   2.0730   2.1866   2.1914
     3.4322   3.5970   7.9472   7.9875   8.5995   8.6228   8.7620   9.1161
    10.3974  10.7454  10.8355  11.8472  11.8535  12.2362  12.4588  12.5393
    12.6882  12.7838  12.8021  13.1246  13.1733  13.2329  13.5846  15.2609
    15.4924  15.8743  16.9993  17.4291  17.8040  17.8976  17.9731  18.5244
    18.7354  18.9621  19.1702  19.6472  19.8857  19.9985  20.0609  20.2281
    20.8416  21.2166  21.6669  21.7956  22.3408  22.5844  22.9740  23.4748
    23.5815  23.7062  24.5585  25.2599  25.5021  25.7058

          k = 0.3273 0.1884 0.0000 (  9053 PWs)   bands (ev):

    -8.6077  -8.5940  -8.5390  -8.5246  -1.1022  -1.0856  -0.2031  -0.1939
     0.3145   0.4014   1.0683   1.2853   1.8446   1.8510   1.9762   1.9802
     3.4773   3.6135   7.7070   7.7346   8.5498   8.5553   8.5882   8.9034
    10.3942  10.7158  10.8232  11.8607  11.8779  12.2245  12.5289  12.7077
    12.8080  12.8306  12.9060  13.0602  13.0910  13.1026  13.5676  15.2989
    15.3402  15.7106  16.9609  17.5665  17.8481  18.2953  18.3790  18.6588
    18.8965  19.0325  19.3291  19.8499  19.9937  20.0602  20.1899  20.2699
    20.8007  21.3929  21.6828  21.7522  22.3420  22.5555  23.1863  23.6131
    23.7749  23.7854  24.3634  25.3708  25.5024  25.7716

          k = 0.3465 0.1995 0.0000 (  9051 PWs)   bands (ev):

    -8.4861  -8.4730  -8.4213  -8.4076  -1.1018  -1.0975  -0.3987  -0.3896
     0.2844   0.3826   1.1727   1.3760   1.6201   1.6265   1.7660   1.7673
     3.5124   3.6196   7.4691   7.4848   8.3607   8.4838   8.5484   8.7135
    10.4312  10.6701  10.8062  11.8902  11.9271  12.2245  12.5202  12.7854
    12.7931  12.8445  12.9631  12.9914  13.2222  13.2278  13.6208  15.0963
    15.4042  15.5441  16.8375  17.6978  17.7645  18.5240  18.6292  18.9272
    18.9667  19.1339  19.4228  20.1493  20.2039  20.3221  20.3496  20.3596
    20.8028  21.4749  21.7296  21.8177  22.3052  22.4996  23.3350  23.7049
    23.9071  23.9274  24.1567  25.1557  25.1853  25.7603

          k = 0.3658 0.2106 0.0000 (  9051 PWs)   bands (ev):

    -8.3660  -8.3536  -8.3050  -8.2921  -1.1469  -1.1433  -0.5797  -0.5718
     0.3223   0.4271   1.2795   1.3951   1.4015   1.4444   1.5572   1.5816
     3.5357   3.6146   7.2346   7.2399   8.1976   8.4129   8.4892   8.5471
    10.4777  10.5993  10.8002  11.9197  11.9943  12.2373  12.4803  12.6795
    12.7601  12.7796  13.1320  13.1556  13.3944  13.4091  13.7237  14.8902
    15.3828  15.4485  16.6760  17.6344  17.8204  18.6080  18.8081  18.8345
    19.1815  19.3860  19.4206  20.2620  20.3584  20.5460  20.7731  20.7905
    20.8425  21.5294  21.7224  22.0392  22.2822  22.3931  23.3705  23.6891
    23.8192  24.0559  24.1868  24.8678  24.9051  25.5712

          k = 0.3850 0.2217 0.0000 (  9042 PWs)   bands (ev):

    -8.2489  -8.2374  -8.1920  -8.1800  -1.2190  -1.2120  -0.7414  -0.7350
     0.4139   0.5205   1.1715   1.1776   1.3046   1.3110   1.4306   1.5995
     3.5462   3.5985   7.0013   7.0051   8.0622   8.3480   8.4040   8.4216
    10.4712  10.4977  10.8543  11.9232  12.0638  12.2699  12.4664  12.5669
    12.7580  12.7769  13.3215  13.3481  13.5728  13.6058  13.8475  14.6879
    15.2395  15.4695  16.5045  17.4951  17.9272  18.6382  18.6825  18.9313
    19.2943  19.3899  19.6623  20.2193  20.5940  20.6976  20.8829  21.3005
    21.3259  21.6168  21.7296  22.2192  22.2226  22.3785  23.2742  23.5558
    23.5939  24.2221  24.3341  24.6089  24.7173  25.4853

          k = 0.4043 0.2328 0.0000 (  9040 PWs)   bands (ev):

    -8.1370  -8.1264  -8.0841  -8.0731  -1.2979  -1.2903  -0.8806  -0.8758
     0.5410   0.6453   0.9518   0.9569   1.1053   1.1132   1.5212   1.6873
     3.5438   3.5726   6.7710   6.7819   7.9548   8.2829   8.2941   8.3558
    10.3653  10.3880  10.9849  11.8831  12.0993  12.3303  12.4993  12.5400
    12.7832  12.8271  13.5083  13.5414  13.7540  13.8054  13.9650  14.5006
    15.1354  15.4663  16.3397  17.3602  18.0068  18.5276  18.6214  19.0221
    19.1955  19.5690  19.8426  20.1204  20.7334  20.8326  20.9278  21.5316
    21.6772  21.8648  21.9252  22.0629  22.3176  22.5993  23.1799  23.4154
    23.4226  24.3325  24.3929  24.4973  24.6741  25.5257

          k = 0.4235 0.2439 0.0000 (  9034 PWs)   bands (ev):

    -8.0321  -8.0225  -7.9832  -7.9732  -1.3710  -1.3642  -0.9946  -0.9914
     0.6806   0.7176   0.7489   0.8082   0.8986   0.9070   1.6245   1.7740
     3.5299   3.5388   6.5510   6.5673   7.8739   8.1816   8.2556   8.3001
    10.2082  10.2566  11.1608  11.8138  12.0707  12.4200  12.5670  12.6397
    12.8465  12.9013  13.6625  13.7193  13.9330  14.0018  14.0600  14.3520
    15.1004  15.4434  16.1928  17.2329  18.0436  18.3745  18.5686  19.0780
    19.1152  19.7184  19.9567  19.9785  20.6993  20.9311  20.9582  21.3623
    21.6577  21.7384  22.3389  22.4374  22.5107  22.7308  23.3480  23.3481
    23.4581  24.1656  24.5557  24.6285  24.6781  25.6543

          k = 0.4428 0.2550 0.0000 (  9014 PWs)   bands (ev):

    -7.9362  -7.9277  -7.8910  -7.8822  -1.4296  -1.4243  -1.0815  -1.0798
     0.5170   0.5247   0.6956   0.7042   0.8524   0.9506   1.7220   1.8532
     3.5006   3.5071   6.3433   6.3635   7.8167   8.0969   8.2366   8.2608
    10.0334  10.0986  11.3616  11.7394  12.0109  12.5340  12.6917  12.7901
    12.9299  12.9998  13.7200  13.8389  14.1053  14.1623  14.1863  14.2958
    15.1557  15.4120  16.0712  17.1136  18.0207  18.2231  18.4981  19.0668
    19.0781  19.7202  19.7750  20.0927  20.6073  20.7643  20.9694  21.1567
    21.5706  21.6280  22.3042  22.8246  22.8420  23.0031  23.4850  23.6666
    23.7292  24.1252  24.6970  24.7274  24.7621  25.8359

          k = 0.4620 0.2660 0.0000 (  9032 PWs)   bands (ev):

    -7.8511  -7.8438  -7.8093  -7.8018  -1.4682  -1.4646  -1.1401  -1.1396
     0.3142   0.3217   0.4990   0.5074   1.0108   1.1016   1.8105   1.9226
     3.4623   3.4791   6.1508   6.1733   7.7791   8.0256   8.2400   8.2430
     9.8481   9.9256  11.5770  11.6761  11.9546  12.6599  12.8384  12.9681
    13.0151  13.1289  13.6691  13.8376  14.2660  14.3092  14.3450  14.3829
    15.2906  15.3903  15.9781  17.0047  17.9309  18.0731  18.4201  18.9931
    19.0476  19.4122  19.6072  20.2200  20.3847  20.5857  20.9169  21.0514
    21.4371  21.6528  22.3208  22.9349  23.0360  23.3980  23.8258  23.9378
    24.1001  24.2958  24.7967  24.8971  24.9088  25.9873

          k = 0.4813 0.2771 0.0000 (  9022 PWs)   bands (ev):

    -7.7783  -7.7722  -7.7395  -7.7332  -1.4838  -1.4818  -1.1707  -1.1693
     0.1203   0.1276   0.3106   0.3190   1.1619   1.2429   1.8879   1.9802
     3.4287   3.4506   5.9764   5.9998   7.7568   7.9644   8.2492   8.2688
     9.6581   9.7452  11.6326  11.7995  11.9143  12.7750  12.9685  13.1076
    13.1583  13.2833  13.6025  13.7636  14.4103  14.4600  14.4800  14.5426
    15.4009  15.4762  15.9102  16.9132  17.7805  17.9279  18.3280  18.8137
    19.0046  19.0669  19.2500  19.9892  20.3489  20.6590  20.9201  20.9232
    21.3547  21.7136  22.3923  23.0692  23.1686  23.6049  24.0872  24.2040
    24.3845  24.6885  24.9789  25.0925  25.1529  26.1355

          k = 0.5005 0.2882 0.0000 (  9020 PWs)   bands (ev):

    -7.7189  -7.7141  -7.6825  -7.6776  -1.4757  -1.4753  -1.1733  -1.1707
    -0.0612  -0.0543   0.1334   0.1415   1.2974   1.3657   1.9528   2.0253
     3.4045   3.4264   5.8241   5.8468   7.7455   7.9107   8.2825   8.3236
     9.4680   9.5625  11.6135  11.8920  12.0218  12.8474  13.0251  13.2283
    13.3181  13.4538  13.6138  13.7197  14.5182  14.5344  14.6436  14.7027
    15.4559  15.6879  15.8565  16.8491  17.5747  17.7954  18.2078  18.5849
    18.6423  18.8314  18.9123  19.7335  20.4628  20.7651  20.7751  21.0094
    21.3045  21.7908  22.4939  23.2186  23.2969  23.7204  24.1050  24.5168
    24.5219  25.1397  25.2273  25.3394  25.4642  26.3000

          k = 0.5198 0.2993 0.0000 (  9026 PWs)   bands (ev):

    -7.6734  -7.6699  -7.6389  -7.6353  -1.4474  -1.4463  -1.1506  -1.1470
    -0.2257  -0.2193  -0.0285  -0.0210   1.4095   1.4624   2.0045   2.0575
     3.3925   3.4104   5.6986   5.7188   7.7416   7.8631   8.3432   8.4042
     9.2819   9.3819  11.6199  11.8833  12.2347  12.8643  12.9947  13.3360
    13.3799  13.6327  13.7563  13.8199  14.5343  14.6252  14.7708  14.8244
    15.5406  15.8031  15.9087  16.8197  17.3147  17.6891  18.0553  18.2530
    18.3611  18.4575  18.6373  19.6971  20.5685  20.6028  20.8947  21.1435
    21.2625  21.8841  22.6047  23.3699  23.4214  23.8177  24.0345  24.5516
    24.7242  25.4478  25.4981  25.6644  25.7438  26.4716

          k = 0.5390 0.3104 0.0000 (  9024 PWs)   bands (ev):

    -7.6419  -7.6395  -7.6087  -7.6063  -1.4046  -1.4027  -1.1096  -1.1058
    -0.3651  -0.3597  -0.1675  -0.1611   1.4928   1.5281   2.0428   2.0770
     3.3922   3.4036   5.6050   5.6207   7.7430   7.8213   8.4302   8.5076
     9.1049   9.2073  11.6487  11.8793  12.4267  12.8372  12.9369  13.2586
    13.5383  13.8118  13.9862  14.0269  14.5284  14.6715  14.8252  14.8688
    15.6188  15.7444  16.1248  16.8196  17.0223  17.6249  17.8949  17.9185
    18.0980  18.2719  18.3246  19.7797  20.4513  20.6632  20.9889  21.2224
    21.2831  21.9956  22.7075  23.5002  23.5302  23.9052  23.9080  24.5125
    24.8475  25.5938  25.7204  25.9306  25.9957  26.6271

          k = 0.5583 0.3215 0.0000 (  9024 PWs)   bands (ev):

    -7.6236  -7.6225  -7.5912  -7.5899  -1.3613  -1.3596  -1.0649  -1.0621
    -0.4647  -0.4613  -0.2688  -0.2646   1.5446   1.5618   2.0682   2.0846
     3.3987   3.4036   5.5487   5.5577   7.7493   7.7867   8.5370   8.6190
     8.9520   9.0465  11.6892  11.8706  12.5837  12.7804  12.8962  13.1822
    13.6712  13.9734  14.2442  14.2801  14.5243  14.6547  14.7626  14.7959
    15.6594  15.6917  16.3220  16.7552  16.8307  17.5827  17.7280  17.7602
    17.9421  18.0735  18.1752  19.8867  20.3283  20.7308  21.0481  21.1891
    21.3937  22.1109  22.7800  23.5612  23.6080  23.7777  23.9802  24.4498
    24.9096  25.6721  25.8534  26.0051  26.2348  26.5491

          k = 0.5775 0.3325 0.0000 (  9032 PWs)   bands (ev):

    -7.6177  -7.6174  -7.5855  -7.5851  -1.3404  -1.3403  -1.0423  -1.0418
    -0.5022  -0.5018  -0.3077  -0.3069   1.5663   1.5664   2.0811   2.0819
     3.4031   3.4047   5.5326   5.5337   7.7616   7.7632   8.6195   8.6649
     8.8941   8.9448  11.7134  11.8620  12.6773  12.7204  12.8841  13.1492
    13.7329  14.0565  14.4715  14.5372  14.5465  14.5958  14.5999  14.6037
    15.6646  15.6689  16.4425  16.6092  16.8351  17.5335  17.7071  17.7205
    17.9013  17.9615  18.1378  19.9398  20.2754  20.7552  21.0715  21.1747
    21.4390  22.1752  22.7987  23.5426  23.6384  23.7415  24.0119  24.4221
    24.9259  25.6973  25.9055  26.0135  26.3271  26.5261

          k = 0.5775 0.3215 0.0000 (  9028 PWs)   bands (ev):

    -7.6190  -7.6184  -7.5868  -7.5861  -1.3472  -1.3459  -1.0499  -1.0479
    -0.4922  -0.4900  -0.2971  -0.2944   1.5596   1.5674   2.0766   2.0842
     3.4019   3.4039   5.5354   5.5405   7.7557   7.7728   8.5872   8.6597
     8.9023   8.9817  11.7049  11.8652  12.6478  12.7417  12.8862  13.1588
    13.7089  14.0248  14.3509  14.3901  14.5237  14.6404  14.7036  14.7356
    15.6686  15.6746  16.4106  16.6468  16.8355  17.5498  17.7154  17.7205
    17.9104  17.9929  18.1487  19.9269  20.2871  20.7488  21.0620  21.1791
    21.4257  22.1478  22.8026  23.5588  23.6288  23.7489  24.0005  24.4280
    24.9237  25.6903  25.8867  26.0136  26.3128  26.5330

          k = 0.5775 0.3104 0.0000 (  9032 PWs)   bands (ev):

    -7.6228  -7.6218  -7.5904  -7.5893  -1.3656  -1.3631  -1.0699  -1.0663
    -0.4618  -0.4577  -0.2652  -0.2603   1.5479   1.5629   2.0696   2.0845
     3.3979   3.4002   5.5471   5.5570   7.7536   7.7861   8.5252   8.6233
     8.9479   9.0562  11.6814  11.8724  12.6022  12.7636  12.8930  13.1864
    13.6444  13.9422  14.1757  14.2072  14.5046  14.7191  14.8400  14.8837
    15.6779  15.6963  16.3592  16.7065  16.8409  17.5837  17.7154  17.7534
    17.9307  18.0657  18.1836  19.8964  20.3117  20.7301  21.0341  21.1940
    21.3919  22.0742  22.8244  23.5996  23.6029  23.7714  23.9688  24.4382
    24.9177  25.6679  25.8321  26.0116  26.2918  26.5306

          k = 0.5775 0.2993 0.0000 (  9024 PWs)   bands (ev):

    -7.6289  -7.6274  -7.5963  -7.5947  -1.3942  -1.3906  -1.1006  -1.0955
    -0.4126  -0.4065  -0.2137  -0.2069   1.5321   1.5536   2.0607   2.0825
     3.3908   3.3930   5.5673   5.5818   7.7569   7.8034   8.4559   8.5658
     9.0212   9.1445  11.6467  11.8783  12.5527  12.7750  12.9039  13.2280
    13.5407  13.8180  13.9799  14.0123  14.4999  14.8134  14.9797  15.0346
    15.6941  15.7361  16.3090  16.7624  16.8555  17.6148  17.7463  17.7998
    17.9625  18.1625  18.2415  19.8588  20.3373  20.6986  20.9818  21.2204
    21.3436  21.9667  22.8664  23.5607  23.6569  23.8139  23.9158  24.4467
    24.9095  25.6253  25.7479  26.0056  26.2761  26.5283

          k = 0.5775 0.2882 0.0000 (  9024 PWs)   bands (ev):

    -7.6369  -7.6350  -7.6040  -7.6020  -1.4309  -1.4264  -1.1391  -1.1329
    -0.3469  -0.3391  -0.1455  -0.1370   1.5129   1.5404   2.0503   2.0785
     3.3803   3.3822   5.5948   5.6135   7.7666   7.8255   8.3851   8.5009
     9.1081   9.2400  11.6046  11.8784  12.5007  12.7758  12.9150  13.2726
    13.4046  13.6649  13.7754  13.8223  14.5035  14.9145  15.1184  15.1869
    15.7187  15.7948  16.2633  16.8082  16.8820  17.6342  17.8150  17.8534
    18.0088  18.2744  18.3181  19.8210  20.3570  20.6524  20.9026  21.2575
    21.2874  21.8451  22.9220  23.5031  23.7196  23.8428  23.8789  24.4507
    24.8990  25.5558  25.6462  25.9955  26.2601  26.5290

          k = 0.5775 0.2771 0.0000 (  9020 PWs)   bands (ev):

    -7.6467  -7.6443  -7.6134  -7.6110  -1.4731  -1.4679  -1.1830  -1.1759
    -0.2676  -0.2583  -0.0637  -0.0538   1.4912   1.5240   2.0384   2.0727
     3.3661   3.3680   5.6283   5.6504   7.7836   7.8532   8.3147   8.4342
     9.2024   9.3397  11.5576  11.8706  12.4463  12.7658  12.9131  13.2451
    13.2823  13.4942  13.5926  13.6666  14.5086  15.0153  15.2524  15.3392
    15.7536  15.8718  16.2243  16.8423  16.9214  17.6527  17.9056  17.9091
    18.0714  18.3968  18.4080  19.7872  20.3690  20.5865  20.8036  21.2267
    21.3026  21.7275  22.9838  23.4320  23.7532  23.7775  23.9657  24.4512
    24.8846  25.4550  25.5371  25.9839  26.2327  26.5265

          k = 0.5775 0.2660 0.0000 (  9016 PWs)   bands (ev):

    -7.6580  -7.6552  -7.6243  -7.6214  -1.5191  -1.5133  -1.2300  -1.2223
    -0.1771  -0.1665   0.0294   0.0403   1.4678   1.5054   2.0253   2.0653
     3.3481   3.3510   5.6661   5.6905   7.8090   7.8876   8.2457   8.3677
     9.3012   9.4416  11.5072  11.8543  12.3893  12.7430  12.8683  13.0727
    13.1680  13.3154  13.4849  13.6163  14.5103  15.1088  15.3763  15.4898
    15.8022  15.9657  16.1964  16.8657  16.9734  17.6762  17.9633  18.0073
    18.1473  18.5066  18.5267  19.7603  20.3737  20.4930  20.7005  21.1623
    21.3511  21.6257  23.0454  23.3500  23.6525  23.8218  24.0685  24.4533
    24.8631  25.3260  25.4267  25.9721  26.1837  26.4997

          k = 0.5775 0.2550 0.0000 (  9030 PWs)   bands (ev):

    -7.6705  -7.6674  -7.6364  -7.6332  -1.5670  -1.5609  -1.2787  -1.2705
    -0.0776  -0.0658   0.1316   0.1435   1.4434   1.4852   2.0112   2.0567
     3.3270   3.3313   5.7065   5.7320   7.8439   7.9294   8.1785   8.3024
     9.4022   9.5437  11.4545  11.8297  12.3288  12.6967  12.7516  12.9040
    12.9590  13.1381  13.4553  13.6718  14.5063  15.1878  15.4808  15.6362
    15.8692  16.0747  16.1884  16.8809  17.0367  17.7052  18.0134  18.1139
    18.2305  18.6098  18.6620  19.7426  20.3702  20.3732  20.6070  21.0977
    21.3977  21.5443  23.1005  23.2588  23.5484  23.8452  24.1790  24.4632
    24.8305  25.1799  25.3189  25.9571  26.1062  26.4259

          k = 0.5775 0.2439 0.0000 (  9034 PWs)   bands (ev):

    -7.6841  -7.6807  -7.6495  -7.6460  -1.6159  -1.6094  -1.3279  -1.3194
     0.0290   0.0419   0.2415   0.2542   1.4188   1.4643   1.9964   2.0469
     3.3033   3.3092   5.7477   5.7728   7.8890   7.9796   8.1134   8.2388
     9.5035   9.6437  11.4000  11.7973  12.2629  12.5753  12.5923  12.7250
    12.7748  12.9756  13.4918  13.7657  14.4960  15.2470  15.5532  15.7751
    15.9582  16.1966  16.2127  16.8923  17.1087  17.7388  18.0552  18.2218
    18.3135  18.7149  18.8012  19.7362  20.2311  20.3700  20.5252  21.0391
    21.4364  21.4811  23.1421  23.1589  23.4509  23.8445  24.2817  24.4861
    24.7818  25.0357  25.2163  25.9322  25.9997  26.3084

          k = 0.5775 0.2328 0.0000 (  9034 PWs)   bands (ev):

    -7.6986  -7.6949  -7.6635  -7.6596  -1.6648  -1.6580  -1.3768  -1.3680
     0.1412   0.1552   0.3576   0.3711   1.3947   1.4436   1.9811   2.0362
     3.2776   3.2851   5.7881   5.8114   7.9451   8.0387   8.0506   8.1772
     9.6027   9.7389  11.3437  11.7566  12.1887  12.3705  12.4270  12.4854
    12.6786  12.8515  13.5691  13.8756  14.4799  15.2846  15.5845  15.9021
    16.0698  16.2777  16.3294  16.9050  17.1857  17.7762  18.0832  18.3280
    18.3877  18.8199  18.9427  19.7432  20.0940  20.3667  20.4556  20.9917
    21.4316  21.4615  23.0489  23.1619  23.3716  23.8228  24.3330  24.5380
    24.7123  24.9235  25.1204  25.8707  25.8870  26.1696

          k = 0.5775 0.2217 0.0000 (  9016 PWs)   bands (ev):

    -7.7137  -7.7097  -7.6781  -7.6739  -1.7130  -1.7061  -1.4249  -1.4159
     0.2574   0.2722   0.4791   0.4932   1.3722   1.4240   1.9654   2.0249
     3.2504   3.2596   5.8263   5.8462   7.9900   8.0126   8.1073   8.1177
     9.6967   9.8256  11.2853  11.7043  12.1025  12.1596  12.2461  12.2480
    12.5717  12.7795  13.6701  13.9946  14.4587  15.3029  15.5777  16.0119
    16.2011  16.3789  16.4708  16.9256  17.2628  17.8174  18.0926  18.4301
    18.4429  18.9238  19.0852  19.7649  19.9759  20.3658  20.4020  20.9577
    21.3926  21.4689  22.9290  23.1519  23.3193  23.7857  24.2864  24.6194
    24.6329  24.8724  25.0298  25.7298  25.8082  26.0341

          k = 0.5775 0.2106 0.0000 (  9020 PWs)   bands (ev):

    -7.7292  -7.7249  -7.6931  -7.6887  -1.7602  -1.7531  -1.4717  -1.4626
     0.3757   0.3913   0.6049   0.6196   1.3524   1.4066   1.9497   2.0132
     3.2223   3.2330   5.8610   5.8763   7.9320   8.0605   8.0914   8.1856
     9.7816   9.8988  11.2233  11.6293  11.9621  11.9995  12.0175  12.0769
    12.4688  12.7368  13.7858  14.1195  14.4335  15.3057  15.5441  16.0987
    16.3478  16.5020  16.6189  16.9610  17.3340  17.8636  18.0816  18.4679
    18.5264  19.0259  19.2275  19.8025  19.8924  20.3682  20.3698  20.9365
    21.3635  21.4568  22.8021  23.1073  23.2968  23.7300  24.1804  24.5039
    24.7388  24.8733  24.9392  25.5882  25.6879  25.9251

          k = 0.5775 0.1995 0.0000 (  9018 PWs)   bands (ev):

    -7.7450  -7.7405  -7.7084  -7.7037  -1.8059  -1.7987  -1.5170  -1.5077
     0.4940   0.5100   0.7341   0.7495   1.3371   1.3932   1.9341   2.0013
     3.1936   3.2057   5.8913   5.9009   7.8764   8.0056   8.1811   8.2732
     9.8521   9.9527  11.1545  11.5072  11.7815  11.8274  11.8709  11.9435
    12.3852  12.7057  13.9110  14.2483  14.4051  15.2968  15.4939  16.1574
    16.5060  16.6331  16.7711  17.0162  17.3938  17.9165  18.0535  18.4544
    18.6159  19.1250  19.3684  19.8543  19.8565  20.3552  20.3805  20.9255
    21.3461  21.4269  22.6734  23.0295  23.3014  23.6380  24.0758  24.3693
    24.8068  24.8406  24.9141  25.4562  25.5379  25.8550

          k = 0.5775 0.1884 0.0000 (  9034 PWs)   bands (ev):

    -7.7609  -7.7561  -7.7238  -7.7188  -1.8500  -1.8426  -1.5605  -1.5511
     0.6095   0.6252   0.8659   0.8818   1.3292   1.3861   1.9188   1.9896
     3.1649   3.1783   5.9168   5.9198   7.8233   7.9531   8.2809   8.3697
     9.9013   9.9803  11.0727  11.3314  11.5861  11.7273  11.7369  11.8472
    12.3221  12.6806  14.0418  14.3743  14.3786  15.2789  15.4339  16.1867
    16.6722  16.7598  16.9237  17.0922  17.4394  17.9761  18.0172  18.4036
    18.6994  19.2194  19.5071  19.8662  19.9235  20.3612  20.3995  20.9198
    21.3449  21.3836  22.5480  22.9248  23.3268  23.4969  24.0026  24.2190
    24.7280  24.7949  24.9962  25.3416  25.3772  25.7845

          k = 0.5775 0.1774 0.0000 (  9028 PWs)   bands (ev):

    -7.7766  -7.7716  -7.7390  -7.7339  -1.8921  -1.8847  -1.6021  -1.5926
     0.7180   0.7316   0.9992   1.0157   1.3329   1.3889   1.9043   1.9783
     3.1364   3.1510   5.9327   5.9372   7.7728   7.9030   8.3895   8.4741
     9.9215   9.9753  10.9674  11.1302  11.4171  11.6272  11.6632  11.7783
    12.2767  12.6603  14.1744  14.3418  14.5077  15.2542  15.3693  16.1896
    16.8437  16.8686  17.0691  17.1848  17.4756  17.9869  18.0388  18.3275
    18.7795  19.3061  19.6431  19.9184  20.0028  20.3835  20.4271  20.9132
    21.3336  21.3655  22.4303  22.8006  23.3200  23.3646  23.9500  24.0562
    24.6007  24.7289  25.0707  25.2237  25.2473  25.6874

          k = 0.5775 0.1663 0.0000 (  9038 PWs)   bands (ev):

    -7.7922  -7.7870  -7.7541  -7.7488  -1.9322  -1.9247  -1.6415  -1.6319
     0.8137   0.8223   1.1331   1.1500   1.3550   1.4067   1.8909   1.9678
     3.1085   3.1242   5.9402   5.9522   7.7249   7.8553   8.5052   8.5847
     9.9061   9.9348  10.8309  10.9243  11.2887  11.5537  11.6121  11.7381
    12.2476  12.6446  14.3041  14.3080  14.6312  15.2240  15.3060  16.1718
    16.9456  17.0175  17.1886  17.2849  17.5220  17.9782  18.0977  18.2465
    18.8613  19.3817  19.7763  19.9988  20.0894  20.4199  20.4620  20.9013
    21.2841  21.4116  22.3247  22.6637  23.1267  23.4035  23.8834  23.8957
    24.4652  24.6287  25.0306  25.1712  25.1750  25.5949

          k = 0.5775 0.1552 0.0000 (  9050 PWs)   bands (ev):

    -7.8073  -7.8019  -7.7688  -7.7633  -1.9700  -1.9625  -1.6787  -1.6691
     0.8893   0.8902   1.2661   1.2835   1.4022   1.4457   1.8792   1.9587
     3.0814   3.0981   5.9424   5.9621   7.6795   7.8100   8.6258   8.6994
     9.8527   9.8607  10.6697  10.7236  11.1969  11.5196  11.5669  11.7240
    12.2354  12.6341  14.2733  14.4242  14.7401  15.1893  15.2551  16.1400
    16.9825  17.1880  17.2541  17.3762  17.6112  17.9994  18.1462  18.1893
    18.9505  19.4429  19.9063  20.0934  20.1779  20.4696  20.5013  20.8844
    21.2427  21.4819  22.2359  22.5192  22.9297  23.4294  23.7030  23.8242
    24.3335  24.5095  24.8936  25.1085  25.2147  25.5082

          k = 0.5775 0.1441 0.0000 (  9044 PWs)   bands (ev):

    -7.8219  -7.8164  -7.7830  -7.7773  -2.0056  -1.9980  -1.7136  -1.7039
     0.9309   0.9425   1.3967   1.4138   1.4765   1.5092   1.8707   1.9520
     3.0554   3.0730   5.9399   5.9671   7.6366   7.7671   8.7480   8.8149
     9.7570   9.7671  10.4996  10.5339  11.1291  11.5210  11.5250  11.7279
    12.2432  12.6298  14.2380  14.5233  14.8170  15.1506  15.2388  16.1013
    16.9835  17.2511  17.3628  17.4330  17.7478  18.0442  18.1819  18.1935
    19.0520  19.4875  20.0318  20.1873  20.2634  20.5331  20.5404  20.8678
    21.2167  21.5711  22.1684  22.3721  22.7362  23.4226  23.5194  23.7275
    24.2213  24.3822  24.7636  25.0525  25.2432  25.4296

          k = 0.5775 0.1330 0.0000 (  9040 PWs)   bands (ev):

    -7.8359  -7.8303  -7.7966  -7.7907  -2.0388  -2.0311  -1.7462  -1.7364
     0.9508   0.9732   1.5218   1.5371   1.5723   1.5946   1.8685   1.9497
     3.0307   3.0491   5.9332   5.9677   7.5963   7.7265   8.8674   8.9264
     9.6346   9.6546  10.3350  10.3611  11.0752  11.4851  11.5494  11.7389
    12.2740  12.6328  14.2021  14.5825  14.8484  15.1083  15.2813  16.0646
    16.9619  17.2236  17.4353  17.5134  17.9095  18.1149  18.2117  18.2703
    19.1673  19.5154  20.1486  20.2622  20.3436  20.5735  20.6126  20.8604
    21.2121  21.6724  22.1267  22.2272  22.5510  23.3139  23.3876  23.6046
    24.1421  24.2528  24.6490  24.9960  25.2549  25.3627

          k = 0.5775 0.1219 0.0000 (  9036 PWs)   bands (ev):

    -7.8492  -7.8434  -7.8094  -7.8035  -2.0695  -2.0618  -1.7763  -1.7665
     0.9570   0.9876   1.6361   1.6438   1.6812   1.6953   1.8811   1.9562
     3.0074   3.0266   5.9228   5.9641   7.5585   7.6883   8.9770   9.0261
     9.4998   9.5260  10.1880  10.2133  11.0299  11.4466  11.5947  11.7485
    12.3294  12.6444  14.1657  14.5803  14.8541  15.0626  15.3741  16.0399
    16.9319  17.1776  17.3930  17.6328  18.0821  18.2205  18.2541  18.3904
    19.2947  19.5281  20.2456  20.3001  20.4245  20.5964  20.7100  20.8702
    21.2313  21.7779  22.0909  22.1147  22.3776  23.1245  23.2857  23.4597
    24.0962  24.1253  24.5494  24.9311  25.2509  25.3083

          k = 0.5775 0.1108 0.0000 (  9034 PWs)   bands (ev):

    -7.8616  -7.8557  -7.8215  -7.8154  -2.0976  -2.0899  -1.8039  -1.7941
     0.9553   0.9920   1.7143   1.7287   1.7960   1.8042   1.9270   1.9814
     2.9857   3.0055   5.9092   5.9570   7.5231   7.6523   9.0657   9.1015
     9.3595   9.3895  10.0724  10.1028  10.9904  11.4090  11.6479  11.7527
    12.4070  12.6659  14.1289  14.5213  14.8463  15.0136  15.4914  16.0373
    16.9031  17.1220  17.3312  17.6993  18.2597  18.3336  18.3485  18.5313
    19.4308  19.5292  20.2957  20.3082  20.5184  20.6075  20.8218  20.8955
    21.2718  21.8723  21.9791  22.1337  22.2195  22.9312  23.1514  23.2993
    24.0043  24.0694  24.4609  24.8523  25.2325  25.2522

          k = 0.5775 0.0998 0.0000 (  9040 PWs)   bands (ev):

    -7.8731  -7.8671  -7.8327  -7.8265  -2.1233  -2.1155  -1.8290  -1.8191
     0.9494   0.9905   1.7424   1.7858   1.9119   1.9157   2.0112   2.0378
     2.9658   2.9862   5.8930   5.9467   7.4903   7.6187   9.1182   9.1375
     9.2192   9.2516  10.0038  10.0451  10.9552  11.3718  11.7021  11.7515
    12.5018  12.6983  14.0915  14.4295  14.8141  14.9613  15.6152  16.0630
    16.8810  17.0613  17.2686  17.7084  18.4390  18.4591  18.4820  18.6819
    19.5245  19.5717  20.2585  20.3374  20.5961  20.6369  20.9224  20.9388
    21.3257  21.8503  21.9936  22.0862  22.1821  22.7405  22.9981  23.1301
    23.8945  24.0458  24.3800  24.7590  25.1597  25.2018

          k = 0.5775 0.0887 0.0000 (  9032 PWs)   bands (ev):

    -7.8836  -7.8775  -7.8429  -7.8366  -2.1463  -2.1385  -1.8515  -1.8416
     0.9415   0.9858   1.7489   1.8108   2.0253   2.0256   2.1114   2.1206
     2.9477   2.9686   5.8749   5.9340   7.4600   7.5873   9.0833   9.1173
     9.1225   9.1258   9.9941  10.0488  10.9233  11.3345  11.7463  11.7522
    12.6082  12.7418  14.0535  14.3222  14.7540  14.9059  15.7321  16.1181
    16.8665  16.9989  17.2169  17.6772  18.6057  18.6160  18.6202  18.8349
    19.5228  19.7127  20.2028  20.3466  20.5867  20.7483  20.9351  21.0461
    21.3823  21.7868  21.9548  22.0923  22.2524  22.5599  22.8384  22.9581
    23.8002  24.0160  24.3054  24.6536  25.0250  25.1605

          k = 0.5775 0.0776 0.0000 (  9020 PWs)   bands (ev):

    -7.8930  -7.8868  -7.8520  -7.8457  -2.1666  -2.1588  -1.8714  -1.8615
     0.9330   0.9797   1.7478   1.8193   2.1309   2.1332   2.2122   2.2128
     2.9315   2.9528   5.8555   5.9195   7.4323   7.5583   8.9554   8.9910
     9.0744   9.0840  10.0380  10.1043  10.8938  11.2966  11.7390  11.7954
    12.7207  12.7955  14.0150  14.2086  14.6728  14.8477  15.8307  16.2010
    16.8574  16.9375  17.1843  17.6244  18.7041  18.7933  18.7966  18.9835
    19.5373  19.8482  20.1418  20.3464  20.5655  20.8631  20.9209  21.1258
    21.4289  21.7520  21.8848  22.1571  22.2995  22.4337  22.6832  22.7892
    23.7229  23.9770  24.2386  24.5389  24.8765  25.1114

          k = 0.5775 0.0665 0.0000 (  9032 PWs)   bands (ev):

    -7.9013  -7.8950  -7.8601  -7.8536  -2.1843  -2.1765  -1.8888  -1.8788
     0.9248   0.9732   1.7443   1.8211   2.2287   2.2332   2.3030   2.3071
     2.9173   2.9390   5.8357   5.9039   7.4072   7.5318   8.8386   8.8756
     9.0035   9.0202  10.1164  10.1921  10.8662  11.2572  11.7309  11.8306
    12.8334  12.8582  13.9760  14.0951  14.5801  14.7875  15.9048  16.3055
    16.8495  16.8794  17.1761  17.5626  18.7616  18.9690  18.9788  19.1192
    19.5827  19.9708  20.0887  20.3439  20.5411  20.8803  20.9738  21.1522
    21.4499  21.7485  21.8665  22.1910  22.2038  22.4814  22.5566  22.6308
    23.6598  23.9300  24.1843  24.4171  24.7328  25.0576

          k = 0.5775 0.0554 0.0000 (  9032 PWs)   bands (ev):

    -7.9084  -7.9021  -7.8670  -7.8605  -2.1993  -2.1915  -1.9035  -1.8935
     0.9172   0.9669   1.7401   1.8202   2.3166   2.3228   2.3855   2.3923
     2.9052   2.9272   5.8163   5.8882   7.3850   7.5080   8.7354   8.7739
     8.9283   8.9490  10.2106  10.2955  10.8396  11.2159  11.7230  11.8579
    12.9196  12.9489  13.9370  13.9868  14.4855  14.7267  15.9557  16.4203
    16.8266  16.8410  17.1922  17.5001  18.7730  19.1348  19.1661  19.2298
    19.6661  20.0592  20.0689  20.3424  20.5231  20.8217  21.0771  21.1123
    21.4299  21.7811  21.8878  22.0605  22.2263  22.4124  22.4958  22.6276
    23.6040  23.8786  24.1484  24.2903  24.6021  25.0034

          k = 0.5775 0.0443 0.0000 (  9034 PWs)   bands (ev):

    -7.9142  -7.9079  -7.8727  -7.8661  -2.2117  -2.2038  -1.9155  -1.9055
     0.9106   0.9614   1.7362   1.8184   2.3924   2.4000   2.4570   2.4655
     2.8951   2.9175   5.7984   5.8734   7.3661   7.4875   8.6481   8.6879
     8.8586   8.8816  10.3077  10.4029  10.8132  11.1720  11.7158  11.8781
    12.9862  13.0516  13.8887  13.8989  14.3967  14.6674  15.9891  16.5307
    16.7809  16.8354  17.2257  17.4422  18.7477  19.2897  19.3020  19.3509
    19.7812  20.0691  20.1305  20.3346  20.5288  20.7537  21.0214  21.1705
    21.3644  21.8336  21.9229  21.9455  22.2153  22.3344  22.4093  22.7547
    23.5484  23.8282  24.1340  24.1612  24.4890  24.9534

          k = 0.5775 0.0333 0.0000 (  9028 PWs)   bands (ev):

    -7.9188  -7.9124  -7.8771  -7.8706  -2.2212  -2.2134  -1.9249  -1.9149
     0.9053   0.9568   1.7328   1.8165   2.4538   2.4626   2.5150   2.5246
     2.8872   2.9099   5.7830   5.8604   7.3507   7.4706   8.5783   8.6195
     8.8003   8.8247  10.3992  10.5061  10.7861  11.1259  11.7099  11.8925
    13.0472  13.1422  13.8055  13.8635  14.3204  14.6130  16.0100  16.6202
    16.7438  16.8409  17.2664  17.3931  18.7031  19.3326  19.4283  19.5279
    19.9146  20.1246  20.1558  20.3062  20.5681  20.6813  20.9008  21.2486
    21.2720  21.8418  21.8717  21.9563  22.1790  22.2922  22.3864  22.8839
    23.4910  23.7842  24.0342  24.1380  24.3961  24.9120

          k = 0.5775 0.0222 0.0000 (  9018 PWs)   bands (ev):

    -7.9221  -7.9157  -7.8804  -7.8738  -2.2281  -2.2202  -1.9316  -1.9216
     0.9014   0.9534   1.7303   1.8149   2.4992   2.5088   2.5578   2.5681
     2.8815   2.9044   5.7711   5.8503   7.3392   7.4579   8.5275   8.5698
     8.7567   8.7819  10.4786  10.5968  10.7581  11.0798  11.7055  11.9019
    13.0973  13.2140  13.7421  13.8336  14.2618  14.5681  16.0223  16.6740
    16.7164  16.8644  17.3041  17.3559  18.6562  19.3350  19.5424  19.6893
    20.0506  20.1586  20.2174  20.2577  20.6073  20.6222  20.7641  21.1662
    21.3220  21.7504  21.8682  21.9866  22.1594  22.2752  22.3975  23.0035
    23.4377  23.7507  23.9173  24.1511  24.3263  24.8825

          k = 0.5775 0.0111 0.0000 (  9026 PWs)   bands (ev):

    -7.9241  -7.9177  -7.8823  -7.8757  -2.2322  -2.2243  -1.9356  -1.9256
     0.8991   0.9513   1.7288   1.8139   2.5270   2.5372   2.5841   2.5947
     2.8781   2.9011   5.7636   5.8438   7.3322   7.4500   8.4966   8.5397
     8.7299   8.7554  10.5382  10.6635  10.7323  11.0407  11.7028  11.9073
    13.1309  13.2607  13.7021  13.8130  14.2250  14.5381  16.0288  16.6954
    16.6997  16.8941  17.3305  17.3327  18.6211  19.3277  19.6204  19.8192
    20.1523  20.1661  20.2011  20.3358  20.5387  20.6197  20.6674  21.0881
    21.3722  21.6818  21.8443  22.0078  22.1597  22.2701  22.4154  23.0958
    23.3986  23.7301  23.8273  24.1635  24.2827  24.8657

          k = 0.5775 0.0000 0.0000 (  9026 PWs)   bands (ev):

    -7.9248  -7.9183  -7.8829  -7.8763  -2.2336  -2.2257  -1.9369  -1.9269
     0.8983   0.9506   1.7282   1.8136   2.5364   2.5467   2.5929   2.6037
     2.8769   2.9000   5.7611   5.8416   7.3298   7.4474   8.4863   8.5296
     8.7208   8.7465  10.5628  10.6876  10.7214  11.0240  11.7019  11.9090
    13.1427  13.2770  13.6885  13.8056  14.2124  14.5275  16.0308  16.6940
    16.7005  16.9070  17.3249  17.3399  18.6082  19.3238  19.6487  19.8769
    20.1467  20.1709  20.2176  20.4623  20.4805  20.5085  20.6854  21.0578
    21.3926  21.6545  21.8327  22.0150  22.1621  22.2692  22.4235  23.1327
    23.3841  23.7231  23.7914  24.1684  24.2677  24.8604

          k = 0.5583 0.0000 0.0000 (  9016 PWs)   bands (ev):

    -7.9333  -7.9266  -7.8910  -7.8842  -2.2197  -2.2116  -1.9221  -1.9119
     0.8752   0.9316   1.7185   1.8074   2.5395   2.5499   2.5960   2.6068
     2.8929   2.9213   5.7645   5.8507   7.3414   7.4596   8.4914   8.5353
     8.7248   8.7510  10.5745  10.6914  10.7251  11.0344  11.6495  11.9356
    13.1456  13.2797  13.6878  13.8257  14.2185  14.5397  15.9832  16.6960
    16.7597  16.9091  17.3346  17.3409  18.5980  19.3167  19.5968  19.8168
    20.0962  20.1710  20.1722  20.3581  20.4092  20.4715  20.6956  21.0114
    21.4178  21.6317  21.6425  22.1707  22.2295  22.2592  22.5190  23.2084
    23.4416  23.7744  23.8441  24.2060  24.2821  24.8563

          k = 0.5390 0.0000 0.0000 (  9028 PWs)   bands (ev):

    -7.9584  -7.9513  -7.9150  -7.9077  -2.1785  -2.1698  -1.8777  -1.8673
     0.8106   0.8762   1.6902   1.7885   2.5488   2.5592   2.6052   2.6160
     2.9406   2.9782   5.7767   5.8771   7.3757   7.4957   8.5068   8.5522
     8.7369   8.7647  10.6090  10.7028  10.7364  11.0656  11.5359  11.9745
    13.1543  13.2877  13.6853  13.8823  14.2370  14.5772  15.8761  16.7020
    16.9015  16.9151  17.3437  17.3627  18.5667  19.2936  19.4736  19.6506
    19.8970  20.0437  20.0981  20.1575  20.1991  20.4380  20.7210  20.8917
    21.3713  21.4757  21.5641  22.1750  22.3585  22.4964  22.7580  23.3672
    23.5939  23.9177  23.9941  24.3105  24.3234  24.8440

          k = 0.5198 0.0000 0.0000 (  9039 PWs)   bands (ev):

    -7.9993  -7.9914  -7.9541  -7.9459  -2.1113  -2.1018  -1.8048  -1.7940
     0.7149   0.7904   1.6452   1.7568   2.5643   2.5747   2.6205   2.6313
     3.0139   3.0581   5.8021   5.9204   7.4316   7.5542   8.5324   8.5805
     8.7575   8.7881  10.6649  10.7217  10.7551  11.1170  11.3978  11.9973
    13.1686  13.3008  13.6793  13.9649  14.2678  14.6426  15.7558  16.7128
    16.9246  17.0774  17.3474  17.4052  18.5134  19.2461  19.3181  19.4071
    19.6180  19.7606  19.8261  19.8635  20.1493  20.3675  20.7293  20.7537
    21.1157  21.5046  21.5397  22.1571  22.5314  22.7907  23.0626  23.5141
    23.7924  24.1263  24.2204  24.3874  24.4615  24.8234

          k = 0.5005 0.0000 0.0000 (  9021 PWs)   bands (ev):

    -8.0544  -8.0456  -8.0067  -7.9977  -2.0205  -2.0098  -1.7048  -1.6934
     0.5991   0.6831   1.5858   1.7127   2.5860   2.5963   2.6419   2.6526
     3.1023   3.1488   5.8454   5.9813   7.5071   7.6327   8.5685   8.6201
     8.7871   8.8220  10.7397  10.7480  10.7812  11.1876  11.2491  12.0010
    13.1882  13.3188  13.6677  14.0592  14.3109  14.7394  15.6457  16.7291
    16.9363  17.2586  17.3501  17.4557  18.4380  19.1122  19.1454  19.1519
    19.2928  19.3903  19.4609  19.6707  19.9931  20.2451  20.5343  20.7907
    20.9211  21.5318  21.5973  22.1620  22.6990  23.0883  23.3775  23.6005
    23.9786  24.3649  24.4657  24.4962  24.6335  24.7969

          k = 0.4813 0.0000 0.0000 (  9029 PWs)   bands (ev):

    -8.1220  -8.1123  -8.0714  -8.0614  -1.9092  -1.8974  -1.5794  -1.5674
     0.4730   0.5638   1.5145   1.6572   2.6136   2.6239   2.6692   2.6799
     3.1941   3.2398   5.9114   6.0620   7.5994   7.7279   8.6153   8.6711
     8.8266   8.8669  10.7816  10.8145  10.8306  11.0981  11.2764  11.9899
    13.2130  13.3414  13.6481  14.1509  14.3664  14.8697  15.5571  16.7508
    16.9484  17.3485  17.4202  17.5035  18.3439  18.7852  18.9422  18.9602
    18.9788  19.0095  19.0868  19.5112  19.7636  20.0786  20.3231  20.8103
    20.8318  21.6464  21.6526  22.1718  22.8641  23.3504  23.6209  23.6621
    24.0971  24.5433  24.5934  24.7735  24.7939  24.8032

          k = 0.4620 0.0000 0.0000 (  9037 PWs)   bands (ev):

    -8.2000  -8.1894  -8.1463  -8.1353  -1.7818  -1.7689  -1.4308  -1.4181
     0.3455   0.4414   1.4336   1.5919   2.6472   2.6574   2.7023   2.7129
     3.2786   3.3238   6.0042   6.1650   7.7052   7.8358   8.6731   8.7335
     8.8768   8.9237  10.8224  10.8548  10.9340  10.9507  11.3822  11.9698
    13.2423  13.3680  13.6186  14.2312  14.4341  15.0302  15.4962  16.7771
    16.9568  17.3355  17.5251  17.5322  18.2394  18.4400  18.5792  18.6321
    18.7215  18.7374  18.7655  19.3902  19.5050  19.9173  20.1297  20.7672
    20.8774  21.6883  21.8336  22.1775  23.0213  23.5369  23.5936  23.8778
    24.1205  24.6080  24.7678  24.7746  24.9503  25.0851

          k = 0.4428 0.0000 0.0000 (  9053 PWs)   bands (ev):

    -8.2865  -8.2751  -8.2294  -8.2176  -1.6444  -1.6308  -1.2612  -1.2478
     0.2250   0.3247   1.3457   1.5187   2.6865   2.6966   2.7411   2.7516
     3.3461   3.3973   6.1265   6.2926   7.8206   7.9513   8.7428   8.8074
     8.9383   8.9929  10.8125  10.8700  10.9019  11.0459  11.5035  11.9468
    13.2756  13.3978  13.5793  14.2972  14.5133  15.2108  15.4650  16.8055
    16.9540  17.2965  17.5171  17.5215  18.0860  18.1112  18.2125  18.2711
    18.3855  18.5060  18.5706  19.2535  19.2862  19.8082  19.9822  20.7683
    20.9276  21.7242  22.0480  22.1744  23.1571  23.5407  23.6088  23.9883
    24.0688  24.6560  24.8289  24.8553  25.0536  25.3405

          k = 0.4235 0.0000 0.0000 (  9063 PWs)   bands (ev):

    -8.3795  -8.3673  -8.3190  -8.3063  -1.5056  -1.4919  -1.0732  -1.0590
     0.1221   0.2237   1.2529   1.4396   2.7313   2.7414   2.7854   2.7958
     3.3913   3.4579   6.2792   6.4460   7.9413   8.0683   8.8252   8.8926
     9.0120   9.0751  10.6887  10.9241  10.9555  11.1622  11.6390  11.9265
    13.3120  13.4299  13.5320  14.3492  14.6029  15.3958  15.4619  16.8303
    16.9228  17.2032  17.3901  17.4315  17.7306  17.8481  17.8819  17.9467
    18.1105  18.3808  18.3906  19.0441  19.2176  19.7583  19.8953  20.8010
    20.9824  21.7547  22.1521  22.2876  23.2480  23.4800  23.5572  23.9754
    23.9847  24.6877  24.8521  24.9432  25.0902  25.5301

          k = 0.4043 0.0000 0.0000 (  9065 PWs)   bands (ev):

    -8.4771  -8.4643  -8.4132  -8.3998  -1.3779  -1.3657  -0.8693  -0.8543
     0.0504   0.1511   1.1577   1.3571   2.7815   2.7914   2.8349   2.8452
     3.4139   3.5033   6.4611   6.6250   8.0627   8.1798   8.9216   8.9888
     9.0980   9.1709  10.5847  10.9844  11.0150  11.2785  11.7871  11.9142
    13.3503  13.4628  13.4810  14.3885  14.7004  15.4815  15.5633  16.8303
    16.8393  17.0229  17.1679  17.2720  17.3792  17.4911  17.5718  17.6938
    17.9308  18.2378  18.3052  18.9051  19.2173  19.7505  19.8736  20.8603
    21.0411  21.7795  22.1171  22.5326  23.2605  23.4107  23.4249  23.8521
    23.9088  24.7024  24.7779  25.0417  25.0938  25.6321

          k = 0.3850 0.0000 0.0000 (  9065 PWs)   bands (ev):

    -8.5777  -8.5643  -8.5104  -8.4963  -1.2791  -1.2686  -0.6526  -0.6367
     0.0279   0.1231   1.0630   1.2737   2.8368   2.8465   2.8893   2.8995
     3.4164   3.5322   6.6695   6.8284   8.1792   8.2789   9.0329   9.0954
     9.1968   9.2808  10.5065  11.0503  11.0800  11.3902  11.9147  11.9460
    13.3887  13.4322  13.4948  14.4153  14.8014  15.5130  15.6815  16.6443
    16.7615  16.7880  16.8956  17.0368  17.1021  17.1458  17.2468  17.5460
    17.8417  18.1274  18.2113  18.8403  19.2760  19.7713  19.9148  20.9443
    21.1026  21.7973  22.0604  22.7793  23.1738  23.2043  23.3868  23.6513
    23.8547  24.6551  24.6963  24.9048  25.2560  25.6439

          k = 0.3658 0.0000 0.0000 (  9065 PWs)   bands (ev):

    -8.6798  -8.6658  -8.6092  -8.5945  -1.2296  -1.2134  -0.4267  -0.4104
     0.0708   0.1556   0.9724   1.1929   2.8967   2.9064   2.9485   2.9585
     3.4020   3.5456   6.9006   7.0534   8.2833   8.3626   9.1584   9.2116
     9.3082   9.4051  10.4602  11.1212  11.1498  11.4927  11.9321  12.1139
    13.3922  13.4250  13.5232  14.4285  14.8967  15.5362  15.7111  16.3806
    16.4571  16.5904  16.6030  16.7079  16.8167  16.9448  17.0526  17.4878
    17.8056  18.0829  18.1024  18.8312  19.3533  19.8143  20.0118  21.0522
    21.1655  21.8062  21.9823  22.9630  23.0053  23.0060  23.3843  23.4052
    23.7894  24.5007  24.6605  24.7000  25.4175  25.5016

          k = 0.3465 0.0000 0.0000 (  9085 PWs)   bands (ev):

    -8.7820  -8.7675  -8.7083  -8.6931  -1.2348  -1.2060  -0.1976  -0.1817
     0.1828   0.2545   0.8922   1.1196   2.9611   2.9706   3.0119   3.0217
     3.3744   3.5451   7.1504   7.2970   8.3585   8.4388   9.2960   9.3361
     9.4321   9.5443  10.4507  11.1961  11.2235  11.5815  11.9701  12.2887
    13.3678  13.4559  13.5445  14.4251  14.9678  15.5145  15.6269  16.0815
    16.1394  16.3061  16.3208  16.3975  16.5088  16.7068  17.1089  17.4773
    17.7929  17.9943  18.1147  18.8616  19.4164  19.8732  20.1542  21.1820
    21.2273  21.8036  21.8847  22.7036  22.7864  23.1376  23.1456  23.4721
    23.6674  24.3278  24.4643  24.5753  25.2958  25.4765

          k = 0.3273 0.0000 0.0000 (  9087 PWs)   bands (ev):

    -8.8832  -8.8683  -8.8066  -8.7909  -1.2823  -1.2408   0.0231   0.0370
     0.3520   0.4119   0.8364   1.0631   3.0294   3.0387   3.0791   3.0888
     3.3367   3.5332   7.4146   7.5555   8.3911   8.5172   9.4418   9.4680
     9.5680   9.6985  10.4807  11.2739  11.2998  11.6527  12.0307  12.4684
    13.3650  13.4771  13.5542  14.3990  14.9785  15.3983  15.4423  15.7746
    15.8237  16.0083  16.0950  16.1115  16.2277  16.5792  17.2186  17.4869
    17.7880  17.8987  18.2104  18.9266  19.4521  19.9358  20.3304  21.2850
    21.3280  21.7714  21.7866  22.4379  22.5350  22.8646  23.1698  23.4631
    23.6561  24.1474  24.2321  24.4041  25.0417  25.0806

          k = 0.3080 0.0000 0.0000 (  9105 PWs)   bands (ev):

    -8.9823  -8.9671  -8.9030  -8.8868  -1.3560  -1.3042   0.1980   0.2295
     0.5616   0.6127   0.8378   1.0425   3.1012   3.1103   3.1497   3.1592
     3.2920   3.5123   7.6894   7.8253   8.3891   8.5894   9.5919   9.6069
     9.7148   9.8677  10.5490  11.3531  11.3773  11.7042  12.1145  12.6506
    13.3879  13.4827  13.5464  14.3391  14.8826  15.1740  15.1921  15.4737
    15.5187  15.7309  15.8568  15.9767  15.9802  16.5720  17.3542  17.5026
    17.7819  17.8246  18.3450  19.0309  19.4599  19.9856  20.5276  21.3339
    21.4756  21.6483  21.7522  22.1751  22.2679  22.5974  23.1307  23.1842
    23.7864  23.9698  24.0148  24.1652  24.6214  24.7280

          k = 0.2888 0.0000 0.0000 (  9117 PWs)   bands (ev):

    -9.0786  -9.0631  -8.9967  -8.9802  -1.4434  -1.3841   0.2743   0.3653
     0.7978   0.8434   0.9438   1.0925   3.1759   3.1848   3.2232   3.2325
     3.2429   3.4846   7.9710   8.1029   8.3621   8.6492   9.7419   9.7538
     9.8712  10.0517  10.6505  11.4319  11.4539  11.7363  12.2193  12.8331
    13.4372  13.4658  13.5149  14.2295  14.6767  14.8824  14.9082  15.1868
    15.2301  15.5007  15.6410  15.7734  15.9640  16.6478  17.4999  17.5159
    17.7688  17.7810  18.4918  19.1822  19.4422  20.0087  20.7297  21.3681
    21.5254  21.5847  21.6980  21.9228  22.0150  22.3442  22.8657  23.0233
    23.5394  23.7982  23.8057  24.0716  24.3368  24.3829

          k = 0.2695 0.0000 0.0000 (  9127 PWs)   bands (ev):

    -9.1713  -9.1555  -9.0869  -9.0701  -1.5366  -1.4717   0.2636   0.4160
     1.0513   1.0939   1.1452   1.2371   3.1919   3.2529   3.2616   3.2989
     3.3079   3.4522   8.2559   8.3169   8.3850   8.6946   9.8917   9.9073
    10.0343  10.2493  10.7772  11.5076  11.5272  11.7523  12.3387  13.0125
    13.4195  13.4542  13.5100  14.0582  14.4067  14.5673  14.6155  14.9197
    14.9627  15.3374  15.4718  15.6132  16.0033  16.7685  17.5208  17.6487
    17.7439  17.7768  18.6318  19.3819  19.4008  19.9947  20.9036  21.3803
    21.4273  21.5275  21.6226  21.6879  21.8675  22.1116  22.5641  22.8122
    23.1005  23.5478  23.6659  23.8571  24.0690  24.3303

          k = 0.2503 0.0000 0.0000 (  9125 PWs)   bands (ev):

    -9.2597  -9.2436  -9.1731  -9.1560  -1.6306  -1.5616   0.2133   0.4037
     1.3152   1.3571   1.3942   1.4526   3.1410   3.3315   3.3400   3.3761
     3.3848   3.4172   8.2595   8.5408   8.6684   8.7258  10.0441  10.0636
    10.2002  10.4582  10.9200  11.5770  11.5938  11.7571  12.4599  13.1834
    13.3396  13.3620  13.5975  13.8293  14.1160  14.2584  14.3374  14.6776
    14.7214  15.2429  15.3538  15.5026  16.0497  16.9107  17.5122  17.7033
    17.7977  17.8195  18.7599  19.3376  19.6165  19.9373  20.9731  21.2946
    21.3624  21.4145  21.4763  21.5269  21.7425  21.9045  22.3776  22.5062
    22.6429  23.2321  23.5609  23.6994  23.8312  24.2331

          k = 0.2310 0.0000 0.0000 (  9109 PWs)   bands (ev):

    -9.3433  -9.3270  -9.2546  -9.2372  -1.7225  -1.6503   0.1496   0.3619
     1.5839   1.6278   1.6635   1.7040   3.0926   3.3811   3.4110   3.4191
     3.4540   3.4624   8.1945   8.7437   8.8225   8.9504  10.1992  10.2210
    10.3629  10.6739  11.0700  11.6362  11.6499  11.7556  12.5581  13.2270
    13.2412  13.3291  13.5622  13.6643  13.8452  14.0014  14.1044  14.4657
    14.5111  15.2033  15.2865  15.4393  16.0805  17.0584  17.4855  17.6440
    17.9113  17.9451  18.8793  19.2562  19.8336  19.8578  20.9162  21.0313
    21.2935  21.3071  21.4146  21.4571  21.4729  21.7266  22.1574  22.2547
    22.3155  22.8712  23.4984  23.6063  23.6536  24.0629

          k = 0.2118 0.0000 0.0000 (  9117 PWs)   bands (ev):

    -9.4216  -9.4051  -9.3311  -9.3135  -1.8102  -1.7356   0.0827   0.3088
     1.8519   1.9013   1.9413   1.9714   3.0496   3.3456   3.4903   3.4982
     3.5318   3.5399   8.1255   8.7501   9.0980   9.2285  10.3555  10.3782
    10.5143  10.8877  11.2189  11.6807  11.6912  11.7493  12.5924  13.0878
    13.0983  13.2786  13.3649  13.5526  13.7126  13.9482  13.9610  14.2896
    14.3370  15.2028  15.2637  15.4169  16.0901  17.1952  17.4371  17.5642
    18.0484  18.0886  18.9940  19.1651  19.6853  20.0550  20.7782  20.8298
    21.1394  21.1435  21.2107  21.2921  21.3314  21.5802  21.7682  22.1425
    22.2236  22.5096  23.4816  23.5254  23.5473  23.8677

          k = 0.1925 0.0000 0.0000 (  9123 PWs)   bands (ev):

    -9.4942  -9.4775  -9.4020  -9.3842  -1.8926  -1.8161   0.0172   0.2527
     2.1117   2.1733   2.2211   2.2446   3.0170   3.3127   3.5687   3.5762
     3.6085   3.6162   8.0552   8.7468   9.3644   9.5005  10.5103  10.5325
    10.6456  11.0836  11.3589  11.7059  11.7138  11.7329  12.5261  12.9319
    12.9417  12.9966  13.2122  13.3647  13.7754  13.9466  14.0522  14.1542
    14.2037  15.2305  15.2763  15.4266  16.0829  17.2994  17.3651  17.4639
    18.2221  18.2245  19.0788  19.1050  19.4981  20.1295  20.5458  20.7539
    20.7998  21.0176  21.0288  21.0800  21.1615  21.4656  21.4821  21.9947
    22.1951  22.2247  23.4670  23.5080  23.5114  23.6758

          k = 0.1733 0.0000 0.0000 (  9099 PWs)   bands (ev):

    -9.5608  -9.5440  -9.4671  -9.4491  -1.9687  -1.8907  -0.0447   0.1977
     2.3497   2.4380   2.4985   2.5172   3.0056   3.2852   3.6449   3.6520
     3.6831   3.6904   7.9857   8.7357   9.6184   9.7642  10.6593  10.6794
    10.7494  11.2342  11.4816  11.6907  11.7090  11.7153  12.3712  12.7328
    12.7694  12.7792  13.0608  13.2318  13.8905  14.0520  14.0629  14.1142
    14.1852  15.2796  15.3149  15.4598  16.0677  17.2692  17.3446  17.3466
    18.3470  18.4199  19.0154  19.2096  19.2822  20.0528  20.3376  20.4772
    20.5877  20.6595  20.9308  20.9498  21.0201  21.3812  21.4447  21.6702
    21.9055  22.3259  23.4496  23.4620  23.5714  23.5724

          k = 0.1540 0.0000 0.0000 (  9103 PWs)   bands (ev):

    -9.6210  -9.6041  -9.5260  -9.5078  -2.0378  -1.9586  -0.1019   0.1459
     2.5370   2.6865   2.7694   2.7844   3.0413   3.2693   3.7179   3.7246
     3.7544   3.7613   7.9184   8.7184   9.8562  10.0170  10.7943  10.8112
    10.8234  11.3042  11.5777  11.6056  11.6895  11.6955  12.1759  12.5069
    12.6085  12.6182  13.0045  13.1963  13.9968  14.0161  14.0684  14.2343
    14.3238  15.3455  15.3711  15.5088  16.0544  17.1515  17.2096  17.3192
    18.4469  18.6228  18.9606  19.0767  19.2987  19.8736  20.1523  20.1885
    20.3003  20.3613  20.7753  20.8701  20.9043  21.3238  21.3456  21.5948
    21.5996  22.3656  23.3392  23.4289  23.6288  23.6642

          k = 0.1348 0.0000 0.0000 (  9091 PWs)   bands (ev):

    -9.6747  -9.6577  -9.5785  -9.5602  -2.0996  -2.0194  -0.1535   0.0985
     2.6375   2.8970   3.0296   3.0414   3.1567   3.2829   3.7864   3.7927
     3.8213   3.8278   7.8544   8.6966  10.0727  10.2546  10.8684  10.8992
    10.9163  11.2775  11.4803  11.6379  11.6510  11.6573  11.9856  12.3441
    12.4552  12.4646  13.0707  13.2630  14.0105  14.0626  14.0789  14.4585
    14.4597  15.4238  15.4380  15.5671  16.0519  17.0164  17.0635  17.2200
    18.5111  18.7196  18.8359  19.0435  19.3438  19.6276  19.9539  19.9875
    20.0163  20.1582  20.6212  20.7177  20.8885  21.0617  21.2886  21.2922
    21.7747  22.3184  23.2699  23.3052  23.7594  23.7790

          k = 0.1155 0.0000 0.0000 (  9091 PWs)   bands (ev):

    -9.7216  -9.7045  -9.6244  -9.6060  -2.1537  -2.0727  -0.1989   0.0564
     2.6664   3.0221   3.2743   3.2832   3.3321   3.3696   3.8492   3.8552
     3.8826   3.8887   7.7946   8.6717  10.2611  10.4679  10.8819  10.9467
    10.9765  11.1832  11.3464  11.5995  11.6061  11.6682  11.8399  12.2628
    12.3144  12.3233  13.2384  13.4087  14.0393  14.0901  14.1300  14.5870
    14.7034  15.5099  15.5103  15.6291  16.0663  16.8700  16.9115  17.0695
    18.4734  18.5233  18.9232  19.0660  19.2772  19.3540  19.8134  19.8347
    19.8627  20.0308  20.4746  20.5696  20.8491  20.8967  21.0125  21.2704
    21.9066  22.2044  23.0317  23.3817  23.8188  23.9091

          k = 0.0963 0.0000 0.0000 (  9099 PWs)   bands (ev):

    -9.7616  -9.7444  -9.6635  -9.6451  -2.1998  -2.1182  -0.2379   0.0200
     2.6653   3.0583   3.4980   3.5042   3.5210   3.5281   3.9051   3.9106
     3.9370   3.9427   7.7401   8.6452  10.4128  10.6289  10.8457  10.9214
    10.9677  11.0864  11.2568  11.5423  11.5488  11.7003  11.7712  12.1897
    12.1981  12.2481  13.4658  13.6030  14.0936  14.1418  14.1488  14.6999
    14.9553  15.5818  15.5995  15.6902  16.0988  16.7203  16.7595  16.8937
    18.2037  18.4704  18.9417  19.0343  19.0837  19.1010  19.6488  19.8253
    19.8541  19.9715  20.3406  20.4317  20.7088  20.8264  20.9228  21.2634
    21.9571  22.0722  22.7775  23.5595  23.7197  24.0484

          k = 0.0770 0.0000 0.0000 (  9107 PWs)   bands (ev):

    -9.7945  -9.7773  -9.6957  -9.6772  -2.2378  -2.1557  -0.2700  -0.0101
     2.6550   3.0607   3.6937   3.6959   3.6979   3.7003   3.9529   3.9579
     3.9835   3.9887   7.6919   8.6187  10.5209  10.6666  10.7530  10.8416
    10.8967  11.0857  11.2455  11.4860  11.4922  11.7529  11.7765  12.0839
    12.0918  12.2659  13.7158  13.8190  14.1404  14.1632  14.2075  14.7923
    15.2025  15.6491  15.6858  15.7461  16.1449  16.5761  16.6140  16.7150
    17.9405  18.3522  18.8670  18.8861  18.9031  18.9510  19.4612  19.8589
    19.8989  19.9678  20.2238  20.3097  20.6298  20.8142  20.9599  21.2624
    21.8757  22.0164  22.5263  23.5174  23.8034  24.1906

          k = 0.0578 0.0000 0.0000 (  9089 PWs)   bands (ev):

    -9.8202  -9.8029  -9.7209  -9.7023  -2.2674  -2.1850  -0.2953  -0.0338
     2.6435   3.0548   3.8435   3.8478   3.8580   3.8603   3.9913   3.9960
     4.0209   4.0257   7.6516   8.5943  10.5747  10.5929  10.6542  10.7445
    10.8024  11.1838  11.2853  11.4364  11.4421  11.8141  11.8190  11.9994
    12.0069  12.2925  13.9545  14.0330  14.1200  14.2372  14.2764  14.8584
    15.4318  15.7077  15.7625  15.7931  16.1949  16.4471  16.4836  16.5517
    17.6998  18.1918  18.6859  18.7135  18.8201  18.8838  19.2791  19.8073
    19.9454  20.0017  20.1285  20.2085  20.7016  20.9080  21.0014  21.2628
    21.7492  21.9940  22.2842  23.2637  24.0733  24.3283

          k = 0.0385 0.0000 0.0000 (  9071 PWs)   bands (ev):

    -9.8386  -9.8213  -9.7389  -9.7203  -2.2887  -2.2060  -0.3134  -0.0509
     2.6340   3.0484   3.9572   3.9615   3.9797   3.9825   4.0195   4.0239
     4.0483   4.0528   7.6208   8.5742  10.5052  10.5202  10.6490  10.6591
    10.7182  11.2893  11.3376  11.3980  11.4032  11.8649  11.8694  11.9378
    11.9450  12.3164  14.0566  14.1938  14.2254  14.3039  14.3370  14.8944
    15.6257  15.7534  15.8231  15.8284  16.2370  16.3437  16.3781  16.4195
    17.5018  18.0306  18.5433  18.5961  18.7417  18.8324  19.1284  19.7053
    19.9834  20.0451  20.0579  20.1324  20.8696  21.0401  21.0503  21.2620
    21.6456  21.9695  22.0561  23.0148  24.3311  24.4514

          k = 0.0193 0.0000 0.0000 (  9055 PWs)   bands (ev):

    -9.8497  -9.8323  -9.7497  -9.7311  -2.3014  -2.2186  -0.3243  -0.0612
     2.6278   3.0439   4.0285   4.0327   4.0368   4.0410   4.0552   4.0590
     4.0651   4.0694   7.6014   8.5609  10.4439  10.4590  10.6021  10.6621
    10.6644  11.3623  11.3737  11.3779  11.3786  11.8989  11.9003  11.9054
    11.9073  12.3324  14.0377  14.3355  14.3512  14.3618  14.3785  14.9039
    15.7604  15.7827  15.8501  15.8617  16.2626  16.2762  16.3085  16.3327
    17.3701  17.9107  18.4533  18.5260  18.6915  18.7972  19.0294  19.6226
    20.0100  20.0146  20.0770  20.0851  21.0309  21.0684  21.1986  21.2598
    21.5790  21.8595  21.9505  22.8237  24.5268  24.5434

          k = 0.0000 0.0000 0.0000 (  9061 PWs)   bands (ev):

    -9.8534  -9.8360  -9.7533  -9.7347  -2.3057  -2.2228  -0.3279  -0.0646
     2.6257   3.0423   4.0426   4.0467   4.0528   4.0569   4.0707   4.0750
     4.0808   4.0850   7.5947   8.5562  10.4223  10.4370  10.5823  10.6425
    10.6696  11.3655  11.3702  11.3880  11.3928  11.8878  11.8947  11.9110
    11.9179  12.3380  14.0284  14.3686  14.3892  14.3931  14.4136  14.9028
    15.7929  15.8100  15.8574  15.8744  16.2527  16.2708  16.2840  16.3021
    17.3238  17.8661  18.4227  18.5024  18.6744  18.7848  18.9949  19.5920
    20.0000  20.0197  20.0690  20.0884  21.0790  21.0986  21.2584  21.2776
    21.5561  21.7640  21.9435  22.7492  24.5793  24.5989

     Writing all to output data dir ./work/Al2S2.save/
 
     init_run     :      0.26s CPU      0.29s WALL (       1 calls)
     electrons    :    241.27s CPU    292.11s WALL (       1 calls)

     Called by init_run:
     wfcinit      :      0.00s CPU      0.00s WALL (       1 calls)
     potinit      :      0.11s CPU      0.11s WALL (       1 calls)
     hinit0       :      0.09s CPU      0.10s WALL (       1 calls)

     Called by electrons:
     c_bands      :    241.26s CPU    292.10s WALL (       1 calls)
     v_of_rho     :      0.01s CPU      0.01s WALL (       1 calls)
     newd         :      0.03s CPU      0.05s WALL (       1 calls)
     PAW_pot      :      0.10s CPU      0.10s WALL (       1 calls)

     Called by c_bands:
     init_us_2    :      0.06s CPU      0.06s WALL (      91 calls)
     init_us_2:cp :      0.06s CPU      0.06s WALL (      91 calls)
     cegterg      :    235.93s CPU    285.67s WALL (     370 calls)

     Called by *egterg:
     cdiaghg      :     33.66s CPU     34.43s WALL (    6835 calls)
     h_psi        :    126.85s CPU    173.61s WALL (    7205 calls)
     s_psi        :     12.53s CPU     12.78s WALL (    7205 calls)
     g_psi        :      0.33s CPU      0.33s WALL (    6744 calls)

     Called by h_psi:
     h_psi:calbec :     13.69s CPU     17.20s WALL (    7205 calls)
     vloc_psi     :     94.01s CPU    136.39s WALL (    7205 calls)
     add_vuspsi   :     18.26s CPU     19.11s WALL (    7205 calls)

     General routines
     calbec       :     13.67s CPU     17.18s WALL (    7205 calls)
     fft          :      0.01s CPU      0.01s WALL (      12 calls)
     fftw         :     89.84s CPU    130.57s WALL (  469872 calls)
     davcio       :      0.07s CPU      0.08s WALL (     182 calls)
 
     Parallel routines
 
     PWSCF        :   4m 2.57s CPU   4m54.73s WALL

 
   This run was terminated on:  15:19:51  17Jun2023            

=------------------------------------------------------------------------------=
   JOB DONE.
=------------------------------------------------------------------------------=
