
     Program PWSCF v.7.0 starts on 17Jun2023 at 15: 8:29 

     This program is part of the open-source Quantum ESPRESSO suite
     for quantum simulation of materials; please cite
         "P. Giannozzi et al., J. Phys.:Condens. Matter 21 395502 (2009);
         "P. Giannozzi et al., J. Phys.:Condens. Matter 29 465901 (2017);
         "P. Giannozzi et al., J. Chem. Phys. 152 154105 (2020);
          URL http://www.quantum-espresso.org", 
     in publications or presentations arising from this work. More details at
     http://www.quantum-espresso.org/quote

     Parallel version (MPI), running on    16 processors

     MPI processes distributed on     1 nodes
     R & G space division:  proc/nbgrp/npool/nimage =      16
     5097 MiB available memory on the printing compute node when the environment starts
 
     Waiting for input...
     Reading input from standard input

     Current dimensions of program PWSCF are:
     Max number of different atomic species (ntypx) = 10
     Max number of k-points (npk) =  40000
     Max angular momentum in pseudopotentials (lmaxx) =  4
     Message from routine volume:
     axis vectors are left-handed
     file Al.pbe-n-kjpaw_psl.1.0.0.UPF: wavefunction(s)  3S 3P renormalized
     file S.pbe-n-kjpaw_psl.1.0.0.UPF: wavefunction(s)  3S 3P renormalized
     Message from routine setup:
     using ibrav=0 with symmetry is DISCOURAGED, use correct ibrav instead

     Subspace diagonalization in iterative solution of the eigenvalue problem:
     a serial algorithm will be used

 
     Parallelization info
     --------------------
     sticks:   dense  smooth     PW     G-vecs:    dense   smooth      PW
     Min          39      39     12                 4521     4521     798
     Max          40      40     13                 4527     4527     817
     Sum         625     625    199                72391    72391   12883
 
     Using Slab Decomposition
 


     bravais-lattice index     =            0
     lattice parameter (alat)  =       6.1344  a.u.
     unit-cell volume          =    1154.0801 (a.u.)^3
     number of atoms/cell      =            8
     number of atomic types    =            2
     number of electrons       =        36.00
     number of Kohn-Sham states=           70
     kinetic-energy cutoff     =      60.0000  Ry
     charge density cutoff     =     240.0000  Ry
     scf convergence threshold =      1.0E-08
     mixing beta               =       0.5000
     number of iterations used =            8  plain     mixing
     Exchange-correlation= SLA  PW   PBX  PBC
                           (   1   4   3   4   0   0   0)

     celldm(1)=   6.134387  celldm(2)=   0.000000  celldm(3)=   0.000000
     celldm(4)=   0.000000  celldm(5)=   0.000000  celldm(6)=   0.000000

     crystal axes: (cart. coord. in units of alat)
               a(1) = (   0.865734   0.500504   0.000000 )  
               a(2) = (   0.865734  -0.500504   0.000000 )  
               a(3) = (   0.000000   0.000000   5.768998 )  

     reciprocal axes: (cart. coord. in units 2 pi/alat)
               b(1) = (  0.577544  0.998993  0.000000 )  
               b(2) = (  0.577544 -0.998993  0.000000 )  
               b(3) = (  0.000000  0.000000  0.173340 )  


     PseudoPot. # 1 for Al read from file:
     /home/mainadmin/research/danu/pseudo/Al.pbe-n-kjpaw_psl.1.0.0.UPF
     MD5 check sum: 502b6b27b9c6270cab5dd1084b96fa6d
     Pseudo is Projector augmented-wave + core cor, Zval =  3.0
     Generated using &quot;atomic&quot; code by A. Dal Corso  v.6.3
     Shape of augmentation charge: PSQ
     Using radial grid of 1135 points,  6 beta functions with: 
                l(1) =   0
                l(2) =   0
                l(3) =   1
                l(4) =   1
                l(5) =   2
                l(6) =   2
     Q(r) pseudized with 0 coefficients 


     PseudoPot. # 2 for S  read from file:
     /home/mainadmin/research/danu/pseudo/S.pbe-n-kjpaw_psl.1.0.0.UPF
     MD5 check sum: fb45dfebcf3e72a4e1bd4a866ec2e262
     Pseudo is Projector augmented-wave + core cor, Zval =  6.0
     Generated using &quot;atomic&quot; code by A. Dal Corso  v.6.3
     Shape of augmentation charge: PSQ
     Using radial grid of 1151 points,  6 beta functions with: 
                l(1) =   0
                l(2) =   0
                l(3) =   1
                l(4) =   1
                l(5) =   2
                l(6) =   2
     Q(r) pseudized with 0 coefficients 


     atomic species   valence    mass     pseudopotential
        Al             3.00    26.98100     Al( 1.00)
        S              6.00    32.06500     S ( 1.00)

      2 Sym. Ops. (no inversion) found



   Cartesian axes

     site n.     atom                  positions (alat units)
         1           S   tau(   1) = (   0.5771561   0.0000000   0.0000000  )
         2           Al  tau(   2) = (   0.0000000   0.0000000   0.3772115  )
         3           Al  tau(   3) = (   0.0000000   0.0000000   1.1808034  )
         4           S   tau(   4) = (   0.5771561   0.0000000   1.5581054  )
         5           S   tau(   5) = (   1.1543123   0.0000000   2.8846630  )
         6           Al  tau(   6) = (   0.5771561   0.0000000   3.2620132  )
         7           Al  tau(   7) = (   0.5771561   0.0000000   4.0652664  )
         8           S   tau(   8) = (   1.1543123   0.0000000   4.4424402  )

     number of k points=   140

     Number of k-points >= 100: set verbosity='high' to print them.

     Dense  grid:    72391 G-vectors     FFT dimensions: (  32,  32, 180)

     Estimated max dynamical RAM per process >     104.96 MB

     Estimated total dynamical RAM >       1.64 GB

     Initial potential from superposition of free atoms

     starting charge      35.9907, renormalised to      36.0000
     Starting wfcs are   32 randomized atomic wfcs +   38 random wfcs
     Checking if some PAW data can be deallocated... 

     total cpu time spent up to now is        9.4 secs

     Self-consistent Calculation

     iteration #  1     ecut=    60.00 Ry     beta= 0.50
     Davidson diagonalization with overlap
     ethr =  1.00E-02,  avg # of iterations =  8.1

     Threshold (ethr) on eigenvalues was too large:
     Diagonalizing with lowered threshold

     Davidson diagonalization with overlap
     ethr =  9.29E-04,  avg # of iterations =  1.0

     total cpu time spent up to now is      102.1 secs

     total energy              =    -423.53342179 Ry
     estimated scf accuracy    <       0.33411719 Ry

     iteration #  2     ecut=    60.00 Ry     beta= 0.50
     Davidson diagonalization with overlap
     ethr =  9.28E-04,  avg # of iterations =  1.3

     total cpu time spent up to now is      127.6 secs

     total energy              =    -423.57283781 Ry
     estimated scf accuracy    <       0.04244385 Ry

     iteration #  3     ecut=    60.00 Ry     beta= 0.50
     Davidson diagonalization with overlap
     ethr =  1.18E-04,  avg # of iterations =  5.4

     total cpu time spent up to now is      161.0 secs

     total energy              =    -423.57533862 Ry
     estimated scf accuracy    <       0.06316816 Ry

     iteration #  4     ecut=    60.00 Ry     beta= 0.50
     Davidson diagonalization with overlap
     ethr =  1.18E-04,  avg # of iterations =  1.9

     total cpu time spent up to now is      187.6 secs

     total energy              =    -423.58522699 Ry
     estimated scf accuracy    <       0.00276693 Ry

     iteration #  5     ecut=    60.00 Ry     beta= 0.50
     Davidson diagonalization with overlap
     c_bands:  1 eigenvalues not converged
     ethr =  7.69E-06,  avg # of iterations = 10.3

     total cpu time spent up to now is      226.3 secs

     total energy              =    -423.58527575 Ry
     estimated scf accuracy    <       0.00079158 Ry

     iteration #  6     ecut=    60.00 Ry     beta= 0.50
     Davidson diagonalization with overlap
     c_bands:  1 eigenvalues not converged
     c_bands:  1 eigenvalues not converged
     c_bands:  1 eigenvalues not converged
     ethr =  2.20E-06,  avg # of iterations =  5.4

     total cpu time spent up to now is      257.8 secs

     total energy              =    -423.58539113 Ry
     estimated scf accuracy    <       0.00005985 Ry

     iteration #  7     ecut=    60.00 Ry     beta= 0.50
     Davidson diagonalization with overlap
     ethr =  1.66E-07,  avg # of iterations =  1.0

     total cpu time spent up to now is      282.6 secs

     total energy              =    -423.58539724 Ry
     estimated scf accuracy    <       0.00000074 Ry

     iteration #  8     ecut=    60.00 Ry     beta= 0.50
     Davidson diagonalization with overlap
     ethr =  2.06E-09,  avg # of iterations =  1.0

     total cpu time spent up to now is      307.4 secs

     total energy              =    -423.58539739 Ry
     estimated scf accuracy    <       0.00000014 Ry

     iteration #  9     ecut=    60.00 Ry     beta= 0.50
     Davidson diagonalization with overlap
     ethr =  4.02E-10,  avg # of iterations =  1.0

     total cpu time spent up to now is      332.3 secs

     total energy              =    -423.58539742 Ry
     estimated scf accuracy    <       0.00000003 Ry

     iteration # 10     ecut=    60.00 Ry     beta= 0.50
     Davidson diagonalization with overlap
     ethr =  8.05E-11,  avg # of iterations =  1.1

     total cpu time spent up to now is      357.3 secs

     total energy              =    -423.58539742 Ry
     estimated scf accuracy    <       0.00000002 Ry

     iteration # 11     ecut=    60.00 Ry     beta= 0.50
     Davidson diagonalization with overlap
     ethr =  6.76E-11,  avg # of iterations =  1.0

     total cpu time spent up to now is      382.1 secs

     End of self-consistent calculation

     Number of k-points >= 100: set verbosity='high' to print the bands.

     highest occupied, lowest unoccupied level (ev):     4.0850    5.6293

!    total energy              =    -423.58539743 Ry

     total all-electron energy =     -5136.561000 Ry
     estimated scf accuracy    <          7.5E-10 Ry

     The total energy is the sum of the following terms:
     one-electron contribution =     -11.86338033 Ry
     hartree contribution      =      23.29301009 Ry
     xc contribution           =     -31.21925703 Ry
     ewald contribution        =     -80.44276662 Ry
     one-center paw contrib.   =    -323.35300353 Ry

     convergence has been achieved in  11 iterations

     Writing all to output data dir ./work/Al2S2.save/
 
     init_run     :      7.16s CPU      9.27s WALL (       1 calls)
     electrons    :    299.17s CPU    372.74s WALL (       1 calls)

     Called by init_run:
     wfcinit      :      6.88s CPU      8.91s WALL (       1 calls)
     potinit      :      0.13s CPU      0.14s WALL (       1 calls)
     hinit0       :      0.10s CPU      0.14s WALL (       1 calls)

     Called by electrons:
     c_bands      :    266.51s CPU    327.99s WALL (      12 calls)
     sum_band     :     30.98s CPU     42.97s WALL (      12 calls)
     v_of_rho     :      0.06s CPU      0.07s WALL (      12 calls)
     newd         :      0.52s CPU      0.55s WALL (      12 calls)
     PAW_pot      :      1.19s CPU      1.27s WALL (      12 calls)
     mix_rho      :      0.03s CPU      0.03s WALL (      12 calls)

     Called by c_bands:
     init_us_2    :      3.06s CPU      3.21s WALL (    3500 calls)
     init_us_2:cp :      3.04s CPU      3.20s WALL (    3500 calls)
     cegterg      :    252.33s CPU    313.67s WALL (    1680 calls)

     Called by *egterg:
     cdiaghg      :     29.68s CPU     30.38s WALL (    6958 calls)
     h_psi        :    154.70s CPU    214.28s WALL (    7238 calls)
     s_psi        :     15.11s CPU     15.27s WALL (    7238 calls)
     g_psi        :      0.29s CPU      0.31s WALL (    5418 calls)

     Called by h_psi:
     h_psi:calbec :     16.36s CPU     20.33s WALL (    7238 calls)
     vloc_psi     :    115.65s CPU    170.47s WALL (    7238 calls)
     add_vuspsi   :     21.29s CPU     22.05s WALL (    7238 calls)

     General routines
     calbec       :     20.78s CPU     26.02s WALL (    8918 calls)
     fft          :      0.05s CPU      0.06s WALL (     133 calls)
     ffts         :      0.01s CPU      0.01s WALL (      12 calls)
     fftw         :    132.98s CPU    195.60s WALL (  692708 calls)
 
     Parallel routines
 
     PWSCF        :   5m 7.29s CPU   6m24.92s WALL

 
   This run was terminated on:  15:14:54  17Jun2023            

=------------------------------------------------------------------------------=
   JOB DONE.
=------------------------------------------------------------------------------=
