
     Program PWSCF v.7.1 starts on 16Feb2023 at  2: 1: 9 

     This program is part of the open-source Quantum ESPRESSO suite
     for quantum simulation of materials; please cite
         "P. Giannozzi et al., J. Phys.:Condens. Matter 21 395502 (2009);
         "P. Giannozzi et al., J. Phys.:Condens. Matter 29 465901 (2017);
         "P. Giannozzi et al., J. Chem. Phys. 152 154105 (2020);
          URL http://www.quantum-espresso.org", 
     in publications or presentations arising from this work. More details at
     http://www.quantum-espresso.org/quote

     Parallel version (MPI), running on    12 processors

     MPI processes distributed on     1 nodes
     83398 MiB available memory on the printing compute node when the environment starts

     Waiting for input...
     Reading input from standard input

     Current dimensions of program PWSCF are:
     Max number of different atomic species (ntypx) = 10
     Max number of k-points (npk) =  40000
     Max angular momentum in pseudopotentials (lmaxx) =  4
     Message from routine volume:
     axis vectors are left-handed

     Atomic positions and unit cell read from directory:
     ./work/Al2SO.save/
     Atomic positions from file used, from input discarded

     Message from routine volume:
     axis vectors are left-handed
     file Al.pbe-n-kjpaw_psl.1.0.0.UPF: wavefunction(s)  3S 3P renormalized
     file O.pbe-n-kjpaw_psl.1.0.0.UPF: wavefunction(s)  2S 2P renormalized
     file S.pbe-n-kjpaw_psl.1.0.0.UPF: wavefunction(s)  3S 3P renormalized

     R & G space division:  proc/nbgrp/npool/nimage =      12
     Subspace diagonalization in iterative solution of the eigenvalue problem:
     a serial algorithm will be used


     Parallelization info
     --------------------
     sticks:   dense  smooth     PW     G-vecs:    dense   smooth      PW
     Min          51      51     16                 8040     8040    1446
     Max          53      53     17                 8053     8053    1475
     Sum         625     625    199                96569    96569   17545

     Using Slab Decomposition



     bravais-lattice index     =            0
     lattice parameter (alat)  =       6.1344  a.u.
     unit-cell volume          =    1540.6476 (a.u.)^3
     number of atoms/cell      =            4
     number of atomic types    =            3
     number of electrons       =        18.00
     number of Kohn-Sham states=           36
     kinetic-energy cutoff     =      60.0000  Ry
     charge density cutoff     =     240.0000  Ry
     Exchange-correlation= SLA  PW   PBX  PBC
                           (   1   4   3   4   0   0   0)

     celldm(1)=   6.134387  celldm(2)=   0.000000  celldm(3)=   0.000000
     celldm(4)=   0.000000  celldm(5)=   0.000000  celldm(6)=   0.000000

     crystal axes: (cart. coord. in units of alat)
               a(1) = (   0.865734   0.500504   0.000000 )  
               a(2) = (   0.865734  -0.500504   0.000000 )  
               a(3) = (   0.000000   0.000000   7.701366 )  

     reciprocal axes: (cart. coord. in units 2 pi/alat)
               b(1) = (  0.577544  0.998993 -0.000000 )  
               b(2) = (  0.577544 -0.998993 -0.000000 )  
               b(3) = ( -0.000000 -0.000000  0.129847 )  


     PseudoPot. # 1 for Al read from file:
     /home/mainadmin/research/danu/pseudo/Al.pbe-n-kjpaw_psl.1.0.0.UPF
     MD5 check sum: 502b6b27b9c6270cab5dd1084b96fa6d
     Pseudo is Projector augmented-wave + core cor, Zval =  3.0
     Generated using &quot;atomic&quot; code by A. Dal Corso  v.6.3
     Shape of augmentation charge: PSQ
     Using radial grid of 1135 points,  6 beta functions with: 
                l(1) =   0
                l(2) =   0
                l(3) =   1
                l(4) =   1
                l(5) =   2
                l(6) =   2
     Q(r) pseudized with 0 coefficients 


     PseudoPot. # 2 for O  read from file:
     /home/mainadmin/research/danu/pseudo/O.pbe-n-kjpaw_psl.1.0.0.UPF
     MD5 check sum: e99d9cef9b487d1ca56f5b95ecd0fd7a
     Pseudo is Projector augmented-wave + core cor, Zval =  6.0
     Generated using &quot;atomic&quot; code by A. Dal Corso  v.6.3
     Shape of augmentation charge: PSQ
     Using radial grid of 1095 points,  4 beta functions with: 
                l(1) =   0
                l(2) =   0
                l(3) =   1
                l(4) =   1
     Q(r) pseudized with 0 coefficients 


     PseudoPot. # 3 for S  read from file:
     /home/mainadmin/research/danu/pseudo/S.pbe-n-kjpaw_psl.1.0.0.UPF
     MD5 check sum: fb45dfebcf3e72a4e1bd4a866ec2e262
     Pseudo is Projector augmented-wave + core cor, Zval =  6.0
     Generated using &quot;atomic&quot; code by A. Dal Corso  v.6.3
     Shape of augmentation charge: PSQ
     Using radial grid of 1151 points,  6 beta functions with: 
                l(1) =   0
                l(2) =   0
                l(3) =   1
                l(4) =   1
                l(5) =   2
                l(6) =   2
     Q(r) pseudized with 0 coefficients 


     atomic species   valence    mass     pseudopotential
        Al             3.00    26.98100     Al( 1.00)
        O              6.00    15.99900     O ( 1.00)
        S              6.00    32.06500     S ( 1.00)

     No symmetry found


                                    s                        frac. trans.

      isym =  1     identity                                     

 cryst.   s( 1) = (     1          0          0      )
                  (     0          1          0      )
                  (     0          0          1      )

 cart.    s( 1) = (  1.0000000  0.0000000  0.0000000 )
                  (  0.0000000  1.0000000  0.0000000 )
                  (  0.0000000  0.0000000  1.0000000 )


   Cartesian axes

     site n.     atom                  positions (alat units)
         1           O   tau(   1) = (   1.1543382   0.0000000   3.2384027  )
         2           Al  tau(   2) = (   0.5778012   0.0000000   3.4059957  )
         3           Al  tau(   3) = (   0.5767468   0.0000000   4.2109002  )
         4           S   tau(   4) = (   1.1540505   0.0000000   4.5877182  )

   Crystallographic axes

     site n.     atom                  positions (cryst. coord.)
         1           O   tau(   1) = (  0.6666817  0.6666817  0.4204972  )
         2           Al  tau(   2) = (  0.3337059  0.3337059  0.4422587  )
         3           Al  tau(   3) = (  0.3330969  0.3330969  0.5467732  )
         4           S   tau(   4) = (  0.6665155  0.6665155  0.5957019  )

     number of k points=  1154 (tetrahedron method)
                       cart. coord. in units 2pi/alat
        k(    1) = (   0.0000000   0.0000000   0.0000000), wk =   0.0008681
        k(    2) = (   0.0120322  -0.0208124   0.0000000), wk =   0.0017361
        k(    3) = (   0.0240644  -0.0416247   0.0000000), wk =   0.0017361
        k(    4) = (   0.0360965  -0.0624371   0.0000000), wk =   0.0017361
        k(    5) = (   0.0481287  -0.0832494   0.0000000), wk =   0.0017361
        k(    6) = (   0.0601609  -0.1040618   0.0000000), wk =   0.0017361
        k(    7) = (   0.0721931  -0.1248741   0.0000000), wk =   0.0017361
        k(    8) = (   0.0842252  -0.1456865   0.0000000), wk =   0.0017361
        k(    9) = (   0.0962574  -0.1664988   0.0000000), wk =   0.0017361
        k(   10) = (   0.1082896  -0.1873112   0.0000000), wk =   0.0017361
        k(   11) = (   0.1203218  -0.2081235   0.0000000), wk =   0.0017361
        k(   12) = (   0.1323539  -0.2289359   0.0000000), wk =   0.0017361
        k(   13) = (   0.1443861  -0.2497482   0.0000000), wk =   0.0017361
        k(   14) = (   0.1564183  -0.2705606   0.0000000), wk =   0.0017361
        k(   15) = (   0.1684505  -0.2913729   0.0000000), wk =   0.0017361
        k(   16) = (   0.1804826  -0.3121853   0.0000000), wk =   0.0017361
        k(   17) = (   0.1925148  -0.3329976   0.0000000), wk =   0.0017361
        k(   18) = (   0.2045470  -0.3538100   0.0000000), wk =   0.0017361
        k(   19) = (   0.2165792  -0.3746223   0.0000000), wk =   0.0017361
        k(   20) = (   0.2286114  -0.3954347   0.0000000), wk =   0.0017361
        k(   21) = (   0.2406435  -0.4162470   0.0000000), wk =   0.0017361
        k(   22) = (   0.2526757  -0.4370594   0.0000000), wk =   0.0017361
        k(   23) = (   0.2647079  -0.4578718   0.0000000), wk =   0.0017361
        k(   24) = (   0.2767401  -0.4786841   0.0000000), wk =   0.0017361
        k(   25) = (  -0.2887722   0.4994965   0.0000000), wk =   0.0008681
        k(   26) = (   0.0120322   0.0208124   0.0000000), wk =   0.0017361
        k(   27) = (   0.0240644   0.0000000   0.0000000), wk =   0.0017361
        k(   28) = (   0.0360965  -0.0208124   0.0000000), wk =   0.0017361
        k(   29) = (   0.0481287  -0.0416247   0.0000000), wk =   0.0017361
        k(   30) = (   0.0601609  -0.0624371   0.0000000), wk =   0.0017361
        k(   31) = (   0.0721931  -0.0832494   0.0000000), wk =   0.0017361
        k(   32) = (   0.0842252  -0.1040618   0.0000000), wk =   0.0017361
        k(   33) = (   0.0962574  -0.1248741   0.0000000), wk =   0.0017361
        k(   34) = (   0.1082896  -0.1456865   0.0000000), wk =   0.0017361
        k(   35) = (   0.1203218  -0.1664988   0.0000000), wk =   0.0017361
        k(   36) = (   0.1323539  -0.1873112   0.0000000), wk =   0.0017361
        k(   37) = (   0.1443861  -0.2081235   0.0000000), wk =   0.0017361
        k(   38) = (   0.1564183  -0.2289359   0.0000000), wk =   0.0017361
        k(   39) = (   0.1684505  -0.2497482   0.0000000), wk =   0.0017361
        k(   40) = (   0.1804826  -0.2705606   0.0000000), wk =   0.0017361
        k(   41) = (   0.1925148  -0.2913729   0.0000000), wk =   0.0017361
        k(   42) = (   0.2045470  -0.3121853   0.0000000), wk =   0.0017361
        k(   43) = (   0.2165792  -0.3329976   0.0000000), wk =   0.0017361
        k(   44) = (   0.2286114  -0.3538100   0.0000000), wk =   0.0017361
        k(   45) = (   0.2406435  -0.3746223   0.0000000), wk =   0.0017361
        k(   46) = (   0.2526757  -0.3954347   0.0000000), wk =   0.0017361
        k(   47) = (   0.2647079  -0.4162470   0.0000000), wk =   0.0017361
        k(   48) = (   0.2767401  -0.4370594   0.0000000), wk =   0.0017361
        k(   49) = (   0.2887722  -0.4578718   0.0000000), wk =   0.0017361
        k(   50) = (  -0.2767401   0.5203088   0.0000000), wk =   0.0017361
        k(   51) = (  -0.2647079   0.4994965   0.0000000), wk =   0.0017361
        k(   52) = (  -0.2526757   0.4786841   0.0000000), wk =   0.0017361
        k(   53) = (  -0.2406435   0.4578718   0.0000000), wk =   0.0017361
        k(   54) = (  -0.2286114   0.4370594   0.0000000), wk =   0.0017361
        k(   55) = (  -0.2165792   0.4162470   0.0000000), wk =   0.0017361
        k(   56) = (  -0.2045470   0.3954347   0.0000000), wk =   0.0017361
        k(   57) = (  -0.1925148   0.3746223   0.0000000), wk =   0.0017361
        k(   58) = (  -0.1804826   0.3538100   0.0000000), wk =   0.0017361
        k(   59) = (  -0.1684505   0.3329976   0.0000000), wk =   0.0017361
        k(   60) = (  -0.1564183   0.3121853   0.0000000), wk =   0.0017361
        k(   61) = (  -0.1443861   0.2913729   0.0000000), wk =   0.0017361
        k(   62) = (  -0.1323539   0.2705606   0.0000000), wk =   0.0017361
        k(   63) = (  -0.1203218   0.2497482   0.0000000), wk =   0.0017361
        k(   64) = (  -0.1082896   0.2289359   0.0000000), wk =   0.0017361
        k(   65) = (  -0.0962574   0.2081235   0.0000000), wk =   0.0017361
        k(   66) = (  -0.0842252   0.1873112   0.0000000), wk =   0.0017361
        k(   67) = (  -0.0721931   0.1664988   0.0000000), wk =   0.0017361
        k(   68) = (  -0.0601609   0.1456865   0.0000000), wk =   0.0017361
        k(   69) = (  -0.0481287   0.1248741   0.0000000), wk =   0.0017361
        k(   70) = (  -0.0360965   0.1040618   0.0000000), wk =   0.0017361
        k(   71) = (  -0.0240644   0.0832494   0.0000000), wk =   0.0017361
        k(   72) = (  -0.0120322   0.0624371   0.0000000), wk =   0.0017361
        k(   73) = (  -0.0000000   0.0416247   0.0000000), wk =   0.0017361
        k(   74) = (   0.0240644   0.0416247   0.0000000), wk =   0.0017361
        k(   75) = (   0.0360965   0.0208124   0.0000000), wk =   0.0017361
        k(   76) = (   0.0481287   0.0000000   0.0000000), wk =   0.0017361
        k(   77) = (   0.0601609  -0.0208124   0.0000000), wk =   0.0017361
        k(   78) = (   0.0721931  -0.0416247   0.0000000), wk =   0.0017361
        k(   79) = (   0.0842252  -0.0624371   0.0000000), wk =   0.0017361
        k(   80) = (   0.0962574  -0.0832494   0.0000000), wk =   0.0017361
        k(   81) = (   0.1082896  -0.1040618   0.0000000), wk =   0.0017361
        k(   82) = (   0.1203218  -0.1248741   0.0000000), wk =   0.0017361
        k(   83) = (   0.1323539  -0.1456865   0.0000000), wk =   0.0017361
        k(   84) = (   0.1443861  -0.1664988   0.0000000), wk =   0.0017361
        k(   85) = (   0.1564183  -0.1873112   0.0000000), wk =   0.0017361
        k(   86) = (   0.1684505  -0.2081235   0.0000000), wk =   0.0017361
        k(   87) = (   0.1804826  -0.2289359   0.0000000), wk =   0.0017361
        k(   88) = (   0.1925148  -0.2497482   0.0000000), wk =   0.0017361
        k(   89) = (   0.2045470  -0.2705606   0.0000000), wk =   0.0017361
        k(   90) = (   0.2165792  -0.2913729   0.0000000), wk =   0.0017361
        k(   91) = (   0.2286114  -0.3121853   0.0000000), wk =   0.0017361
        k(   92) = (   0.2406435  -0.3329976   0.0000000), wk =   0.0017361
        k(   93) = (   0.2526757  -0.3538100   0.0000000), wk =   0.0017361
        k(   94) = (   0.2647079  -0.3746223   0.0000000), wk =   0.0017361
        k(   95) = (   0.2767401  -0.3954347   0.0000000), wk =   0.0017361
        k(   96) = (   0.2887722  -0.4162470   0.0000000), wk =   0.0017361
        k(   97) = (   0.3008044  -0.4370594   0.0000000), wk =   0.0017361
        k(   98) = (  -0.2647079   0.5411212   0.0000000), wk =   0.0017361
        k(   99) = (  -0.2526757   0.5203088   0.0000000), wk =   0.0017361
        k(  100) = (  -0.2406435   0.4994965   0.0000000), wk =   0.0017361
        k(  101) = (  -0.2286114   0.4786841   0.0000000), wk =   0.0017361
        k(  102) = (  -0.2165792   0.4578718   0.0000000), wk =   0.0017361
        k(  103) = (  -0.2045470   0.4370594   0.0000000), wk =   0.0017361
        k(  104) = (  -0.1925148   0.4162470   0.0000000), wk =   0.0017361
        k(  105) = (  -0.1804826   0.3954347   0.0000000), wk =   0.0017361
        k(  106) = (  -0.1684505   0.3746223   0.0000000), wk =   0.0017361
        k(  107) = (  -0.1564183   0.3538100   0.0000000), wk =   0.0017361
        k(  108) = (  -0.1443861   0.3329976   0.0000000), wk =   0.0017361
        k(  109) = (  -0.1323539   0.3121853   0.0000000), wk =   0.0017361
        k(  110) = (  -0.1203218   0.2913729   0.0000000), wk =   0.0017361
        k(  111) = (  -0.1082896   0.2705606   0.0000000), wk =   0.0017361
        k(  112) = (  -0.0962574   0.2497482   0.0000000), wk =   0.0017361
        k(  113) = (  -0.0842252   0.2289359   0.0000000), wk =   0.0017361
        k(  114) = (  -0.0721931   0.2081235   0.0000000), wk =   0.0017361
        k(  115) = (  -0.0601609   0.1873112   0.0000000), wk =   0.0017361
        k(  116) = (  -0.0481287   0.1664988   0.0000000), wk =   0.0017361
        k(  117) = (  -0.0360965   0.1456865   0.0000000), wk =   0.0017361
        k(  118) = (  -0.0240644   0.1248741   0.0000000), wk =   0.0017361
        k(  119) = (  -0.0120322   0.1040618   0.0000000), wk =   0.0017361
        k(  120) = (   0.0000000   0.0832494   0.0000000), wk =   0.0017361
        k(  121) = (   0.0120322   0.0624371   0.0000000), wk =   0.0017361
        k(  122) = (   0.0360965   0.0624371   0.0000000), wk =   0.0017361
        k(  123) = (   0.0481287   0.0416247   0.0000000), wk =   0.0017361
        k(  124) = (   0.0601609   0.0208124   0.0000000), wk =   0.0017361
        k(  125) = (   0.0721931   0.0000000   0.0000000), wk =   0.0017361
        k(  126) = (   0.0842252  -0.0208124   0.0000000), wk =   0.0017361
        k(  127) = (   0.0962574  -0.0416247   0.0000000), wk =   0.0017361
        k(  128) = (   0.1082896  -0.0624371   0.0000000), wk =   0.0017361
        k(  129) = (   0.1203218  -0.0832494   0.0000000), wk =   0.0017361
        k(  130) = (   0.1323539  -0.1040618   0.0000000), wk =   0.0017361
        k(  131) = (   0.1443861  -0.1248741   0.0000000), wk =   0.0017361
        k(  132) = (   0.1564183  -0.1456865   0.0000000), wk =   0.0017361
        k(  133) = (   0.1684505  -0.1664988   0.0000000), wk =   0.0017361
        k(  134) = (   0.1804826  -0.1873112   0.0000000), wk =   0.0017361
        k(  135) = (   0.1925148  -0.2081235   0.0000000), wk =   0.0017361
        k(  136) = (   0.2045470  -0.2289359   0.0000000), wk =   0.0017361
        k(  137) = (   0.2165792  -0.2497482   0.0000000), wk =   0.0017361
        k(  138) = (   0.2286114  -0.2705606   0.0000000), wk =   0.0017361
        k(  139) = (   0.2406435  -0.2913729   0.0000000), wk =   0.0017361
        k(  140) = (   0.2526757  -0.3121853   0.0000000), wk =   0.0017361
        k(  141) = (   0.2647079  -0.3329976   0.0000000), wk =   0.0017361
        k(  142) = (   0.2767401  -0.3538100   0.0000000), wk =   0.0017361
        k(  143) = (   0.2887722  -0.3746223   0.0000000), wk =   0.0017361
        k(  144) = (   0.3008044  -0.3954347   0.0000000), wk =   0.0017361
        k(  145) = (   0.3128366  -0.4162470   0.0000000), wk =   0.0017361
        k(  146) = (  -0.2526757   0.5619335   0.0000000), wk =   0.0017361
        k(  147) = (  -0.2406435   0.5411212   0.0000000), wk =   0.0017361
        k(  148) = (  -0.2286114   0.5203088   0.0000000), wk =   0.0017361
        k(  149) = (  -0.2165792   0.4994965   0.0000000), wk =   0.0017361
        k(  150) = (  -0.2045470   0.4786841   0.0000000), wk =   0.0017361
        k(  151) = (  -0.1925148   0.4578718   0.0000000), wk =   0.0017361
        k(  152) = (  -0.1804826   0.4370594   0.0000000), wk =   0.0017361
        k(  153) = (  -0.1684505   0.4162470   0.0000000), wk =   0.0017361
        k(  154) = (  -0.1564183   0.3954347   0.0000000), wk =   0.0017361
        k(  155) = (  -0.1443861   0.3746223   0.0000000), wk =   0.0017361
        k(  156) = (  -0.1323539   0.3538100   0.0000000), wk =   0.0017361
        k(  157) = (  -0.1203218   0.3329976   0.0000000), wk =   0.0017361
        k(  158) = (  -0.1082896   0.3121853   0.0000000), wk =   0.0017361
        k(  159) = (  -0.0962574   0.2913729   0.0000000), wk =   0.0017361
        k(  160) = (  -0.0842252   0.2705606   0.0000000), wk =   0.0017361
        k(  161) = (  -0.0721931   0.2497482   0.0000000), wk =   0.0017361
        k(  162) = (  -0.0601609   0.2289359   0.0000000), wk =   0.0017361
        k(  163) = (  -0.0481287   0.2081235   0.0000000), wk =   0.0017361
        k(  164) = (  -0.0360965   0.1873112   0.0000000), wk =   0.0017361
        k(  165) = (  -0.0240644   0.1664988   0.0000000), wk =   0.0017361
        k(  166) = (  -0.0120322   0.1456865   0.0000000), wk =   0.0017361
        k(  167) = (   0.0000000   0.1248741   0.0000000), wk =   0.0017361
        k(  168) = (   0.0120322   0.1040618   0.0000000), wk =   0.0017361
        k(  169) = (   0.0240644   0.0832494   0.0000000), wk =   0.0017361
        k(  170) = (   0.0481287   0.0832494   0.0000000), wk =   0.0017361
        k(  171) = (   0.0601609   0.0624371   0.0000000), wk =   0.0017361
        k(  172) = (   0.0721931   0.0416247   0.0000000), wk =   0.0017361
        k(  173) = (   0.0842252   0.0208124   0.0000000), wk =   0.0017361
        k(  174) = (   0.0962574   0.0000000   0.0000000), wk =   0.0017361
        k(  175) = (   0.1082896  -0.0208124   0.0000000), wk =   0.0017361
        k(  176) = (   0.1203218  -0.0416247   0.0000000), wk =   0.0017361
        k(  177) = (   0.1323539  -0.0624371   0.0000000), wk =   0.0017361
        k(  178) = (   0.1443861  -0.0832494   0.0000000), wk =   0.0017361
        k(  179) = (   0.1564183  -0.1040618   0.0000000), wk =   0.0017361
        k(  180) = (   0.1684505  -0.1248741   0.0000000), wk =   0.0017361
        k(  181) = (   0.1804826  -0.1456865   0.0000000), wk =   0.0017361
        k(  182) = (   0.1925148  -0.1664988   0.0000000), wk =   0.0017361
        k(  183) = (   0.2045470  -0.1873112   0.0000000), wk =   0.0017361
        k(  184) = (   0.2165792  -0.2081235   0.0000000), wk =   0.0017361
        k(  185) = (   0.2286114  -0.2289359   0.0000000), wk =   0.0017361
        k(  186) = (   0.2406435  -0.2497482   0.0000000), wk =   0.0017361
        k(  187) = (   0.2526757  -0.2705606   0.0000000), wk =   0.0017361
        k(  188) = (   0.2647079  -0.2913729   0.0000000), wk =   0.0017361
        k(  189) = (   0.2767401  -0.3121853   0.0000000), wk =   0.0017361
        k(  190) = (   0.2887722  -0.3329976   0.0000000), wk =   0.0017361
        k(  191) = (   0.3008044  -0.3538100   0.0000000), wk =   0.0017361
        k(  192) = (   0.3128366  -0.3746223   0.0000000), wk =   0.0017361
        k(  193) = (   0.3248688  -0.3954347   0.0000000), wk =   0.0017361
        k(  194) = (  -0.2406435   0.5827459   0.0000000), wk =   0.0017361
        k(  195) = (  -0.2286114   0.5619335   0.0000000), wk =   0.0017361
        k(  196) = (  -0.2165792   0.5411212   0.0000000), wk =   0.0017361
        k(  197) = (  -0.2045470   0.5203088   0.0000000), wk =   0.0017361
        k(  198) = (  -0.1925148   0.4994965   0.0000000), wk =   0.0017361
        k(  199) = (  -0.1804826   0.4786841   0.0000000), wk =   0.0017361
        k(  200) = (  -0.1684505   0.4578718   0.0000000), wk =   0.0017361
        k(  201) = (  -0.1564183   0.4370594   0.0000000), wk =   0.0017361
        k(  202) = (  -0.1443861   0.4162470   0.0000000), wk =   0.0017361
        k(  203) = (  -0.1323539   0.3954347   0.0000000), wk =   0.0017361
        k(  204) = (  -0.1203218   0.3746223   0.0000000), wk =   0.0017361
        k(  205) = (  -0.1082896   0.3538100   0.0000000), wk =   0.0017361
        k(  206) = (  -0.0962574   0.3329976   0.0000000), wk =   0.0017361
        k(  207) = (  -0.0842252   0.3121853   0.0000000), wk =   0.0017361
        k(  208) = (  -0.0721931   0.2913729   0.0000000), wk =   0.0017361
        k(  209) = (  -0.0601609   0.2705606   0.0000000), wk =   0.0017361
        k(  210) = (  -0.0481287   0.2497482   0.0000000), wk =   0.0017361
        k(  211) = (  -0.0360965   0.2289359   0.0000000), wk =   0.0017361
        k(  212) = (  -0.0240644   0.2081235   0.0000000), wk =   0.0017361
        k(  213) = (  -0.0120322   0.1873112   0.0000000), wk =   0.0017361
        k(  214) = (  -0.0000000   0.1664988   0.0000000), wk =   0.0017361
        k(  215) = (   0.0120322   0.1456865   0.0000000), wk =   0.0017361
        k(  216) = (   0.0240644   0.1248741   0.0000000), wk =   0.0017361
        k(  217) = (   0.0360965   0.1040618   0.0000000), wk =   0.0017361
        k(  218) = (   0.0601609   0.1040618   0.0000000), wk =   0.0017361
        k(  219) = (   0.0721931   0.0832494   0.0000000), wk =   0.0017361
        k(  220) = (   0.0842252   0.0624371   0.0000000), wk =   0.0017361
        k(  221) = (   0.0962574   0.0416247   0.0000000), wk =   0.0017361
        k(  222) = (   0.1082896   0.0208124   0.0000000), wk =   0.0017361
        k(  223) = (   0.1203218   0.0000000   0.0000000), wk =   0.0017361
        k(  224) = (   0.1323539  -0.0208124   0.0000000), wk =   0.0017361
        k(  225) = (   0.1443861  -0.0416247   0.0000000), wk =   0.0017361
        k(  226) = (   0.1564183  -0.0624371   0.0000000), wk =   0.0017361
        k(  227) = (   0.1684505  -0.0832494   0.0000000), wk =   0.0017361
        k(  228) = (   0.1804826  -0.1040618   0.0000000), wk =   0.0017361
        k(  229) = (   0.1925148  -0.1248741   0.0000000), wk =   0.0017361
        k(  230) = (   0.2045470  -0.1456865   0.0000000), wk =   0.0017361
        k(  231) = (   0.2165792  -0.1664988   0.0000000), wk =   0.0017361
        k(  232) = (   0.2286114  -0.1873112   0.0000000), wk =   0.0017361
        k(  233) = (   0.2406435  -0.2081235   0.0000000), wk =   0.0017361
        k(  234) = (   0.2526757  -0.2289359   0.0000000), wk =   0.0017361
        k(  235) = (   0.2647079  -0.2497482   0.0000000), wk =   0.0017361
        k(  236) = (   0.2767401  -0.2705606   0.0000000), wk =   0.0017361
        k(  237) = (   0.2887722  -0.2913729   0.0000000), wk =   0.0017361
        k(  238) = (   0.3008044  -0.3121853   0.0000000), wk =   0.0017361
        k(  239) = (   0.3128366  -0.3329976   0.0000000), wk =   0.0017361
        k(  240) = (   0.3248688  -0.3538100   0.0000000), wk =   0.0017361
        k(  241) = (   0.3369009  -0.3746223   0.0000000), wk =   0.0017361
        k(  242) = (  -0.2286114   0.6035582   0.0000000), wk =   0.0017361
        k(  243) = (  -0.2165792   0.5827459   0.0000000), wk =   0.0017361
        k(  244) = (  -0.2045470   0.5619335   0.0000000), wk =   0.0017361
        k(  245) = (  -0.1925148   0.5411212   0.0000000), wk =   0.0017361
        k(  246) = (  -0.1804826   0.5203088   0.0000000), wk =   0.0017361
        k(  247) = (  -0.1684505   0.4994965   0.0000000), wk =   0.0017361
        k(  248) = (  -0.1564183   0.4786841   0.0000000), wk =   0.0017361
        k(  249) = (  -0.1443861   0.4578718   0.0000000), wk =   0.0017361
        k(  250) = (  -0.1323539   0.4370594   0.0000000), wk =   0.0017361
        k(  251) = (  -0.1203218   0.4162470   0.0000000), wk =   0.0017361
        k(  252) = (  -0.1082896   0.3954347   0.0000000), wk =   0.0017361
        k(  253) = (  -0.0962574   0.3746223   0.0000000), wk =   0.0017361
        k(  254) = (  -0.0842252   0.3538100   0.0000000), wk =   0.0017361
        k(  255) = (  -0.0721931   0.3329976   0.0000000), wk =   0.0017361
        k(  256) = (  -0.0601609   0.3121853   0.0000000), wk =   0.0017361
        k(  257) = (  -0.0481287   0.2913729   0.0000000), wk =   0.0017361
        k(  258) = (  -0.0360965   0.2705606   0.0000000), wk =   0.0017361
        k(  259) = (  -0.0240644   0.2497482   0.0000000), wk =   0.0017361
        k(  260) = (  -0.0120322   0.2289359   0.0000000), wk =   0.0017361
        k(  261) = (   0.0000000   0.2081235   0.0000000), wk =   0.0017361
        k(  262) = (   0.0120322   0.1873112   0.0000000), wk =   0.0017361
        k(  263) = (   0.0240644   0.1664988   0.0000000), wk =   0.0017361
        k(  264) = (   0.0360965   0.1456865   0.0000000), wk =   0.0017361
        k(  265) = (   0.0481287   0.1248741   0.0000000), wk =   0.0017361
        k(  266) = (   0.0721931   0.1248741   0.0000000), wk =   0.0017361
        k(  267) = (   0.0842252   0.1040618   0.0000000), wk =   0.0017361
        k(  268) = (   0.0962574   0.0832494   0.0000000), wk =   0.0017361
        k(  269) = (   0.1082896   0.0624371   0.0000000), wk =   0.0017361
        k(  270) = (   0.1203218   0.0416247   0.0000000), wk =   0.0017361
        k(  271) = (   0.1323539   0.0208124   0.0000000), wk =   0.0017361
        k(  272) = (   0.1443861   0.0000000   0.0000000), wk =   0.0017361
        k(  273) = (   0.1564183  -0.0208124   0.0000000), wk =   0.0017361
        k(  274) = (   0.1684505  -0.0416247   0.0000000), wk =   0.0017361
        k(  275) = (   0.1804826  -0.0624371   0.0000000), wk =   0.0017361
        k(  276) = (   0.1925148  -0.0832494   0.0000000), wk =   0.0017361
        k(  277) = (   0.2045470  -0.1040618   0.0000000), wk =   0.0017361
        k(  278) = (   0.2165792  -0.1248741   0.0000000), wk =   0.0017361
        k(  279) = (   0.2286114  -0.1456865   0.0000000), wk =   0.0017361
        k(  280) = (   0.2406435  -0.1664988   0.0000000), wk =   0.0017361
        k(  281) = (   0.2526757  -0.1873112   0.0000000), wk =   0.0017361
        k(  282) = (   0.2647079  -0.2081235   0.0000000), wk =   0.0017361
        k(  283) = (   0.2767401  -0.2289359   0.0000000), wk =   0.0017361
        k(  284) = (   0.2887722  -0.2497482   0.0000000), wk =   0.0017361
        k(  285) = (   0.3008044  -0.2705606   0.0000000), wk =   0.0017361
        k(  286) = (   0.3128366  -0.2913729   0.0000000), wk =   0.0017361
        k(  287) = (   0.3248688  -0.3121853   0.0000000), wk =   0.0017361
        k(  288) = (   0.3369009  -0.3329976   0.0000000), wk =   0.0017361
        k(  289) = (   0.3489331  -0.3538100   0.0000000), wk =   0.0017361
        k(  290) = (  -0.2165792   0.6243706   0.0000000), wk =   0.0017361
        k(  291) = (  -0.2045470   0.6035582   0.0000000), wk =   0.0017361
        k(  292) = (  -0.1925148   0.5827459   0.0000000), wk =   0.0017361
        k(  293) = (  -0.1804826   0.5619335   0.0000000), wk =   0.0017361
        k(  294) = (  -0.1684505   0.5411212   0.0000000), wk =   0.0017361
        k(  295) = (  -0.1564183   0.5203088   0.0000000), wk =   0.0017361
        k(  296) = (  -0.1443861   0.4994965   0.0000000), wk =   0.0017361
        k(  297) = (  -0.1323539   0.4786841   0.0000000), wk =   0.0017361
        k(  298) = (  -0.1203218   0.4578718   0.0000000), wk =   0.0017361
        k(  299) = (  -0.1082896   0.4370594   0.0000000), wk =   0.0017361
        k(  300) = (  -0.0962574   0.4162470   0.0000000), wk =   0.0017361
        k(  301) = (  -0.0842252   0.3954347   0.0000000), wk =   0.0017361
        k(  302) = (  -0.0721931   0.3746223   0.0000000), wk =   0.0017361
        k(  303) = (  -0.0601609   0.3538100   0.0000000), wk =   0.0017361
        k(  304) = (  -0.0481287   0.3329976   0.0000000), wk =   0.0017361
        k(  305) = (  -0.0360965   0.3121853   0.0000000), wk =   0.0017361
        k(  306) = (  -0.0240644   0.2913729   0.0000000), wk =   0.0017361
        k(  307) = (  -0.0120322   0.2705606   0.0000000), wk =   0.0017361
        k(  308) = (   0.0000000   0.2497482   0.0000000), wk =   0.0017361
        k(  309) = (   0.0120322   0.2289359   0.0000000), wk =   0.0017361
        k(  310) = (   0.0240644   0.2081235   0.0000000), wk =   0.0017361
        k(  311) = (   0.0360965   0.1873112   0.0000000), wk =   0.0017361
        k(  312) = (   0.0481287   0.1664988   0.0000000), wk =   0.0017361
        k(  313) = (   0.0601609   0.1456865   0.0000000), wk =   0.0017361
        k(  314) = (   0.0842252   0.1456865   0.0000000), wk =   0.0017361
        k(  315) = (   0.0962574   0.1248741   0.0000000), wk =   0.0017361
        k(  316) = (   0.1082896   0.1040618   0.0000000), wk =   0.0017361
        k(  317) = (   0.1203218   0.0832494   0.0000000), wk =   0.0017361
        k(  318) = (   0.1323539   0.0624371   0.0000000), wk =   0.0017361
        k(  319) = (   0.1443861   0.0416247   0.0000000), wk =   0.0017361
        k(  320) = (   0.1564183   0.0208124   0.0000000), wk =   0.0017361
        k(  321) = (   0.1684505   0.0000000   0.0000000), wk =   0.0017361
        k(  322) = (   0.1804826  -0.0208124   0.0000000), wk =   0.0017361
        k(  323) = (   0.1925148  -0.0416247   0.0000000), wk =   0.0017361
        k(  324) = (   0.2045470  -0.0624371   0.0000000), wk =   0.0017361
        k(  325) = (   0.2165792  -0.0832494   0.0000000), wk =   0.0017361
        k(  326) = (   0.2286114  -0.1040618   0.0000000), wk =   0.0017361
        k(  327) = (   0.2406435  -0.1248741   0.0000000), wk =   0.0017361
        k(  328) = (   0.2526757  -0.1456865   0.0000000), wk =   0.0017361
        k(  329) = (   0.2647079  -0.1664988   0.0000000), wk =   0.0017361
        k(  330) = (   0.2767401  -0.1873112   0.0000000), wk =   0.0017361
        k(  331) = (   0.2887722  -0.2081235   0.0000000), wk =   0.0017361
        k(  332) = (   0.3008044  -0.2289359   0.0000000), wk =   0.0017361
        k(  333) = (   0.3128366  -0.2497482   0.0000000), wk =   0.0017361
        k(  334) = (   0.3248688  -0.2705606   0.0000000), wk =   0.0017361
        k(  335) = (   0.3369009  -0.2913729   0.0000000), wk =   0.0017361
        k(  336) = (   0.3489331  -0.3121853   0.0000000), wk =   0.0017361
        k(  337) = (   0.3609653  -0.3329976   0.0000000), wk =   0.0017361
        k(  338) = (  -0.2045470   0.6451829   0.0000000), wk =   0.0017361
        k(  339) = (  -0.1925148   0.6243706   0.0000000), wk =   0.0017361
        k(  340) = (  -0.1804826   0.6035582   0.0000000), wk =   0.0017361
        k(  341) = (  -0.1684505   0.5827459   0.0000000), wk =   0.0017361
        k(  342) = (  -0.1564183   0.5619335   0.0000000), wk =   0.0017361
        k(  343) = (  -0.1443861   0.5411212   0.0000000), wk =   0.0017361
        k(  344) = (  -0.1323539   0.5203088   0.0000000), wk =   0.0017361
        k(  345) = (  -0.1203218   0.4994965   0.0000000), wk =   0.0017361
        k(  346) = (  -0.1082896   0.4786841   0.0000000), wk =   0.0017361
        k(  347) = (  -0.0962574   0.4578718   0.0000000), wk =   0.0017361
        k(  348) = (  -0.0842252   0.4370594   0.0000000), wk =   0.0017361
        k(  349) = (  -0.0721931   0.4162470   0.0000000), wk =   0.0017361
        k(  350) = (  -0.0601609   0.3954347   0.0000000), wk =   0.0017361
        k(  351) = (  -0.0481287   0.3746223   0.0000000), wk =   0.0017361
        k(  352) = (  -0.0360965   0.3538100   0.0000000), wk =   0.0017361
        k(  353) = (  -0.0240644   0.3329976   0.0000000), wk =   0.0017361
        k(  354) = (  -0.0120322   0.3121853   0.0000000), wk =   0.0017361
        k(  355) = (   0.0000000   0.2913729   0.0000000), wk =   0.0017361
        k(  356) = (   0.0120322   0.2705606   0.0000000), wk =   0.0017361
        k(  357) = (   0.0240644   0.2497482   0.0000000), wk =   0.0017361
        k(  358) = (   0.0360965   0.2289359   0.0000000), wk =   0.0017361
        k(  359) = (   0.0481287   0.2081235   0.0000000), wk =   0.0017361
        k(  360) = (   0.0601609   0.1873112   0.0000000), wk =   0.0017361
        k(  361) = (   0.0721931   0.1664988   0.0000000), wk =   0.0017361
        k(  362) = (   0.0962574   0.1664988   0.0000000), wk =   0.0017361
        k(  363) = (   0.1082896   0.1456865   0.0000000), wk =   0.0017361
        k(  364) = (   0.1203218   0.1248741   0.0000000), wk =   0.0017361
        k(  365) = (   0.1323539   0.1040618   0.0000000), wk =   0.0017361
        k(  366) = (   0.1443861   0.0832494   0.0000000), wk =   0.0017361
        k(  367) = (   0.1564183   0.0624371   0.0000000), wk =   0.0017361
        k(  368) = (   0.1684505   0.0416247   0.0000000), wk =   0.0017361
        k(  369) = (   0.1804826   0.0208124   0.0000000), wk =   0.0017361
        k(  370) = (   0.1925148   0.0000000   0.0000000), wk =   0.0017361
        k(  371) = (   0.2045470  -0.0208124   0.0000000), wk =   0.0017361
        k(  372) = (   0.2165792  -0.0416247   0.0000000), wk =   0.0017361
        k(  373) = (   0.2286114  -0.0624371   0.0000000), wk =   0.0017361
        k(  374) = (   0.2406435  -0.0832494   0.0000000), wk =   0.0017361
        k(  375) = (   0.2526757  -0.1040618   0.0000000), wk =   0.0017361
        k(  376) = (   0.2647079  -0.1248741   0.0000000), wk =   0.0017361
        k(  377) = (   0.2767401  -0.1456865   0.0000000), wk =   0.0017361
        k(  378) = (   0.2887722  -0.1664988   0.0000000), wk =   0.0017361
        k(  379) = (   0.3008044  -0.1873112   0.0000000), wk =   0.0017361
        k(  380) = (   0.3128366  -0.2081235   0.0000000), wk =   0.0017361
        k(  381) = (   0.3248688  -0.2289359   0.0000000), wk =   0.0017361
        k(  382) = (   0.3369009  -0.2497482   0.0000000), wk =   0.0017361
        k(  383) = (   0.3489331  -0.2705606   0.0000000), wk =   0.0017361
        k(  384) = (   0.3609653  -0.2913729   0.0000000), wk =   0.0017361
        k(  385) = (   0.3729975  -0.3121853   0.0000000), wk =   0.0017361
        k(  386) = (  -0.1925148   0.6659953   0.0000000), wk =   0.0017361
        k(  387) = (  -0.1804826   0.6451829   0.0000000), wk =   0.0017361
        k(  388) = (  -0.1684505   0.6243706   0.0000000), wk =   0.0017361
        k(  389) = (  -0.1564183   0.6035582   0.0000000), wk =   0.0017361
        k(  390) = (  -0.1443861   0.5827459   0.0000000), wk =   0.0017361
        k(  391) = (  -0.1323539   0.5619335   0.0000000), wk =   0.0017361
        k(  392) = (  -0.1203218   0.5411212   0.0000000), wk =   0.0017361
        k(  393) = (  -0.1082896   0.5203088   0.0000000), wk =   0.0017361
        k(  394) = (  -0.0962574   0.4994965   0.0000000), wk =   0.0017361
        k(  395) = (  -0.0842252   0.4786841   0.0000000), wk =   0.0017361
        k(  396) = (  -0.0721931   0.4578718   0.0000000), wk =   0.0017361
        k(  397) = (  -0.0601609   0.4370594   0.0000000), wk =   0.0017361
        k(  398) = (  -0.0481287   0.4162470   0.0000000), wk =   0.0017361
        k(  399) = (  -0.0360965   0.3954347   0.0000000), wk =   0.0017361
        k(  400) = (  -0.0240644   0.3746223   0.0000000), wk =   0.0017361
        k(  401) = (  -0.0120322   0.3538100   0.0000000), wk =   0.0017361
        k(  402) = (   0.0000000   0.3329976   0.0000000), wk =   0.0017361
        k(  403) = (   0.0120322   0.3121853   0.0000000), wk =   0.0017361
        k(  404) = (   0.0240644   0.2913729   0.0000000), wk =   0.0017361
        k(  405) = (   0.0360965   0.2705606   0.0000000), wk =   0.0017361
        k(  406) = (   0.0481287   0.2497482   0.0000000), wk =   0.0017361
        k(  407) = (   0.0601609   0.2289359   0.0000000), wk =   0.0017361
        k(  408) = (   0.0721931   0.2081235   0.0000000), wk =   0.0017361
        k(  409) = (   0.0842252   0.1873112   0.0000000), wk =   0.0017361
        k(  410) = (   0.1082896   0.1873112   0.0000000), wk =   0.0017361
        k(  411) = (   0.1203218   0.1664988   0.0000000), wk =   0.0017361
        k(  412) = (   0.1323539   0.1456865   0.0000000), wk =   0.0017361
        k(  413) = (   0.1443861   0.1248741   0.0000000), wk =   0.0017361
        k(  414) = (   0.1564183   0.1040618   0.0000000), wk =   0.0017361
        k(  415) = (   0.1684505   0.0832494   0.0000000), wk =   0.0017361
        k(  416) = (   0.1804826   0.0624371   0.0000000), wk =   0.0017361
        k(  417) = (   0.1925148   0.0416247   0.0000000), wk =   0.0017361
        k(  418) = (   0.2045470   0.0208124   0.0000000), wk =   0.0017361
        k(  419) = (   0.2165792   0.0000000   0.0000000), wk =   0.0017361
        k(  420) = (   0.2286114  -0.0208124   0.0000000), wk =   0.0017361
        k(  421) = (   0.2406435  -0.0416247   0.0000000), wk =   0.0017361
        k(  422) = (   0.2526757  -0.0624371   0.0000000), wk =   0.0017361
        k(  423) = (   0.2647079  -0.0832494   0.0000000), wk =   0.0017361
        k(  424) = (   0.2767401  -0.1040618   0.0000000), wk =   0.0017361
        k(  425) = (   0.2887722  -0.1248741   0.0000000), wk =   0.0017361
        k(  426) = (   0.3008044  -0.1456865   0.0000000), wk =   0.0017361
        k(  427) = (   0.3128366  -0.1664988   0.0000000), wk =   0.0017361
        k(  428) = (   0.3248688  -0.1873112   0.0000000), wk =   0.0017361
        k(  429) = (   0.3369009  -0.2081235   0.0000000), wk =   0.0017361
        k(  430) = (   0.3489331  -0.2289359   0.0000000), wk =   0.0017361
        k(  431) = (   0.3609653  -0.2497482   0.0000000), wk =   0.0017361
        k(  432) = (   0.3729975  -0.2705606   0.0000000), wk =   0.0017361
        k(  433) = (   0.3850296  -0.2913729   0.0000000), wk =   0.0017361
        k(  434) = (  -0.1804826   0.6868076   0.0000000), wk =   0.0017361
        k(  435) = (  -0.1684505   0.6659953   0.0000000), wk =   0.0017361
        k(  436) = (  -0.1564183   0.6451829   0.0000000), wk =   0.0017361
        k(  437) = (  -0.1443861   0.6243706   0.0000000), wk =   0.0017361
        k(  438) = (  -0.1323539   0.6035582   0.0000000), wk =   0.0017361
        k(  439) = (  -0.1203218   0.5827459   0.0000000), wk =   0.0017361
        k(  440) = (  -0.1082896   0.5619335   0.0000000), wk =   0.0017361
        k(  441) = (  -0.0962574   0.5411212   0.0000000), wk =   0.0017361
        k(  442) = (  -0.0842252   0.5203088   0.0000000), wk =   0.0017361
        k(  443) = (  -0.0721931   0.4994965   0.0000000), wk =   0.0017361
        k(  444) = (  -0.0601609   0.4786841   0.0000000), wk =   0.0017361
        k(  445) = (  -0.0481287   0.4578718   0.0000000), wk =   0.0017361
        k(  446) = (  -0.0360965   0.4370594   0.0000000), wk =   0.0017361
        k(  447) = (  -0.0240644   0.4162470   0.0000000), wk =   0.0017361
        k(  448) = (  -0.0120322   0.3954347   0.0000000), wk =   0.0017361
        k(  449) = (   0.0000000   0.3746223   0.0000000), wk =   0.0017361
        k(  450) = (   0.0120322   0.3538100   0.0000000), wk =   0.0017361
        k(  451) = (   0.0240644   0.3329976   0.0000000), wk =   0.0017361
        k(  452) = (   0.0360965   0.3121853   0.0000000), wk =   0.0017361
        k(  453) = (   0.0481287   0.2913729   0.0000000), wk =   0.0017361
        k(  454) = (   0.0601609   0.2705606   0.0000000), wk =   0.0017361
        k(  455) = (   0.0721931   0.2497482   0.0000000), wk =   0.0017361
        k(  456) = (   0.0842252   0.2289359   0.0000000), wk =   0.0017361
        k(  457) = (   0.0962574   0.2081235   0.0000000), wk =   0.0017361
        k(  458) = (   0.1203218   0.2081235   0.0000000), wk =   0.0017361
        k(  459) = (   0.1323539   0.1873112   0.0000000), wk =   0.0017361
        k(  460) = (   0.1443861   0.1664988   0.0000000), wk =   0.0017361
        k(  461) = (   0.1564183   0.1456865   0.0000000), wk =   0.0017361
        k(  462) = (   0.1684505   0.1248741   0.0000000), wk =   0.0017361
        k(  463) = (   0.1804826   0.1040618   0.0000000), wk =   0.0017361
        k(  464) = (   0.1925148   0.0832494   0.0000000), wk =   0.0017361
        k(  465) = (   0.2045470   0.0624371   0.0000000), wk =   0.0017361
        k(  466) = (   0.2165792   0.0416247   0.0000000), wk =   0.0017361
        k(  467) = (   0.2286114   0.0208124   0.0000000), wk =   0.0017361
        k(  468) = (   0.2406435   0.0000000   0.0000000), wk =   0.0017361
        k(  469) = (   0.2526757  -0.0208124   0.0000000), wk =   0.0017361
        k(  470) = (   0.2647079  -0.0416247   0.0000000), wk =   0.0017361
        k(  471) = (   0.2767401  -0.0624371   0.0000000), wk =   0.0017361
        k(  472) = (   0.2887722  -0.0832494   0.0000000), wk =   0.0017361
        k(  473) = (   0.3008044  -0.1040618   0.0000000), wk =   0.0017361
        k(  474) = (   0.3128366  -0.1248741   0.0000000), wk =   0.0017361
        k(  475) = (   0.3248688  -0.1456865   0.0000000), wk =   0.0017361
        k(  476) = (   0.3369009  -0.1664988   0.0000000), wk =   0.0017361
        k(  477) = (   0.3489331  -0.1873112   0.0000000), wk =   0.0017361
        k(  478) = (   0.3609653  -0.2081235   0.0000000), wk =   0.0017361
        k(  479) = (   0.3729975  -0.2289359   0.0000000), wk =   0.0017361
        k(  480) = (   0.3850296  -0.2497482   0.0000000), wk =   0.0017361
        k(  481) = (   0.3970618  -0.2705606   0.0000000), wk =   0.0017361
        k(  482) = (  -0.1684505   0.7076200   0.0000000), wk =   0.0017361
        k(  483) = (  -0.1564183   0.6868076   0.0000000), wk =   0.0017361
        k(  484) = (  -0.1443861   0.6659953   0.0000000), wk =   0.0017361
        k(  485) = (  -0.1323539   0.6451829   0.0000000), wk =   0.0017361
        k(  486) = (  -0.1203218   0.6243706   0.0000000), wk =   0.0017361
        k(  487) = (  -0.1082896   0.6035582   0.0000000), wk =   0.0017361
        k(  488) = (  -0.0962574   0.5827459   0.0000000), wk =   0.0017361
        k(  489) = (  -0.0842252   0.5619335   0.0000000), wk =   0.0017361
        k(  490) = (  -0.0721931   0.5411212   0.0000000), wk =   0.0017361
        k(  491) = (  -0.0601609   0.5203088   0.0000000), wk =   0.0017361
        k(  492) = (  -0.0481287   0.4994965   0.0000000), wk =   0.0017361
        k(  493) = (  -0.0360965   0.4786841   0.0000000), wk =   0.0017361
        k(  494) = (  -0.0240644   0.4578718   0.0000000), wk =   0.0017361
        k(  495) = (  -0.0120322   0.4370594   0.0000000), wk =   0.0017361
        k(  496) = (   0.0000000   0.4162470   0.0000000), wk =   0.0017361
        k(  497) = (   0.0120322   0.3954347   0.0000000), wk =   0.0017361
        k(  498) = (   0.0240644   0.3746223   0.0000000), wk =   0.0017361
        k(  499) = (   0.0360965   0.3538100   0.0000000), wk =   0.0017361
        k(  500) = (   0.0481287   0.3329976   0.0000000), wk =   0.0017361
        k(  501) = (   0.0601609   0.3121853   0.0000000), wk =   0.0017361
        k(  502) = (   0.0721931   0.2913729   0.0000000), wk =   0.0017361
        k(  503) = (   0.0842252   0.2705606   0.0000000), wk =   0.0017361
        k(  504) = (   0.0962574   0.2497482   0.0000000), wk =   0.0017361
        k(  505) = (   0.1082896   0.2289359   0.0000000), wk =   0.0017361
        k(  506) = (   0.1323539   0.2289359   0.0000000), wk =   0.0017361
        k(  507) = (   0.1443861   0.2081235   0.0000000), wk =   0.0017361
        k(  508) = (   0.1564183   0.1873112   0.0000000), wk =   0.0017361
        k(  509) = (   0.1684505   0.1664988   0.0000000), wk =   0.0017361
        k(  510) = (   0.1804826   0.1456865   0.0000000), wk =   0.0017361
        k(  511) = (   0.1925148   0.1248741   0.0000000), wk =   0.0017361
        k(  512) = (   0.2045470   0.1040618   0.0000000), wk =   0.0017361
        k(  513) = (   0.2165792   0.0832494   0.0000000), wk =   0.0017361
        k(  514) = (   0.2286114   0.0624371   0.0000000), wk =   0.0017361
        k(  515) = (   0.2406435   0.0416247   0.0000000), wk =   0.0017361
        k(  516) = (   0.2526757   0.0208124   0.0000000), wk =   0.0017361
        k(  517) = (   0.2647079   0.0000000   0.0000000), wk =   0.0017361
        k(  518) = (   0.2767401  -0.0208124   0.0000000), wk =   0.0017361
        k(  519) = (   0.2887722  -0.0416247   0.0000000), wk =   0.0017361
        k(  520) = (   0.3008044  -0.0624371   0.0000000), wk =   0.0017361
        k(  521) = (   0.3128366  -0.0832494   0.0000000), wk =   0.0017361
        k(  522) = (   0.3248688  -0.1040618   0.0000000), wk =   0.0017361
        k(  523) = (   0.3369009  -0.1248741   0.0000000), wk =   0.0017361
        k(  524) = (   0.3489331  -0.1456865   0.0000000), wk =   0.0017361
        k(  525) = (   0.3609653  -0.1664988   0.0000000), wk =   0.0017361
        k(  526) = (   0.3729975  -0.1873112   0.0000000), wk =   0.0017361
        k(  527) = (   0.3850296  -0.2081235   0.0000000), wk =   0.0017361
        k(  528) = (   0.3970618  -0.2289359   0.0000000), wk =   0.0017361
        k(  529) = (   0.4090940  -0.2497482   0.0000000), wk =   0.0017361
        k(  530) = (  -0.1564183   0.7284323   0.0000000), wk =   0.0017361
        k(  531) = (  -0.1443861   0.7076200   0.0000000), wk =   0.0017361
        k(  532) = (  -0.1323539   0.6868076   0.0000000), wk =   0.0017361
        k(  533) = (  -0.1203218   0.6659953   0.0000000), wk =   0.0017361
        k(  534) = (  -0.1082896   0.6451829   0.0000000), wk =   0.0017361
        k(  535) = (  -0.0962574   0.6243706   0.0000000), wk =   0.0017361
        k(  536) = (  -0.0842252   0.6035582   0.0000000), wk =   0.0017361
        k(  537) = (  -0.0721931   0.5827459   0.0000000), wk =   0.0017361
        k(  538) = (  -0.0601609   0.5619335   0.0000000), wk =   0.0017361
        k(  539) = (  -0.0481287   0.5411212   0.0000000), wk =   0.0017361
        k(  540) = (  -0.0360965   0.5203088   0.0000000), wk =   0.0017361
        k(  541) = (  -0.0240644   0.4994965   0.0000000), wk =   0.0017361
        k(  542) = (  -0.0120322   0.4786841   0.0000000), wk =   0.0017361
        k(  543) = (   0.0000000   0.4578718   0.0000000), wk =   0.0017361
        k(  544) = (   0.0120322   0.4370594   0.0000000), wk =   0.0017361
        k(  545) = (   0.0240644   0.4162470   0.0000000), wk =   0.0017361
        k(  546) = (   0.0360965   0.3954347   0.0000000), wk =   0.0017361
        k(  547) = (   0.0481287   0.3746223   0.0000000), wk =   0.0017361
        k(  548) = (   0.0601609   0.3538100   0.0000000), wk =   0.0017361
        k(  549) = (   0.0721931   0.3329976   0.0000000), wk =   0.0017361
        k(  550) = (   0.0842252   0.3121853   0.0000000), wk =   0.0017361
        k(  551) = (   0.0962574   0.2913729   0.0000000), wk =   0.0017361
        k(  552) = (   0.1082896   0.2705606   0.0000000), wk =   0.0017361
        k(  553) = (   0.1203218   0.2497482   0.0000000), wk =   0.0017361
        k(  554) = (   0.1443861   0.2497482   0.0000000), wk =   0.0017361
        k(  555) = (   0.1564183   0.2289359   0.0000000), wk =   0.0017361
        k(  556) = (   0.1684505   0.2081235   0.0000000), wk =   0.0017361
        k(  557) = (   0.1804826   0.1873112   0.0000000), wk =   0.0017361
        k(  558) = (   0.1925148   0.1664988   0.0000000), wk =   0.0017361
        k(  559) = (   0.2045470   0.1456865   0.0000000), wk =   0.0017361
        k(  560) = (   0.2165792   0.1248741   0.0000000), wk =   0.0017361
        k(  561) = (   0.2286114   0.1040618   0.0000000), wk =   0.0017361
        k(  562) = (   0.2406435   0.0832494   0.0000000), wk =   0.0017361
        k(  563) = (   0.2526757   0.0624371   0.0000000), wk =   0.0017361
        k(  564) = (   0.2647079   0.0416247   0.0000000), wk =   0.0017361
        k(  565) = (   0.2767401   0.0208124   0.0000000), wk =   0.0017361
        k(  566) = (   0.2887722   0.0000000   0.0000000), wk =   0.0017361
        k(  567) = (   0.3008044  -0.0208124   0.0000000), wk =   0.0017361
        k(  568) = (   0.3128366  -0.0416247   0.0000000), wk =   0.0017361
        k(  569) = (   0.3248688  -0.0624371   0.0000000), wk =   0.0017361
        k(  570) = (   0.3369009  -0.0832494   0.0000000), wk =   0.0017361
        k(  571) = (   0.3489331  -0.1040618   0.0000000), wk =   0.0017361
        k(  572) = (   0.3609653  -0.1248741   0.0000000), wk =   0.0017361
        k(  573) = (   0.3729975  -0.1456865   0.0000000), wk =   0.0017361
        k(  574) = (   0.3850296  -0.1664988   0.0000000), wk =   0.0017361
        k(  575) = (   0.3970618  -0.1873112   0.0000000), wk =   0.0017361
        k(  576) = (   0.4090940  -0.2081235   0.0000000), wk =   0.0017361
        k(  577) = (   0.4211262  -0.2289359   0.0000000), wk =   0.0017361
        k(  578) = (  -0.1443861   0.7492447   0.0000000), wk =   0.0017361
        k(  579) = (  -0.1323539   0.7284323   0.0000000), wk =   0.0017361
        k(  580) = (  -0.1203218   0.7076200   0.0000000), wk =   0.0017361
        k(  581) = (  -0.1082896   0.6868076   0.0000000), wk =   0.0017361
        k(  582) = (  -0.0962574   0.6659953   0.0000000), wk =   0.0017361
        k(  583) = (  -0.0842252   0.6451829   0.0000000), wk =   0.0017361
        k(  584) = (  -0.0721931   0.6243706   0.0000000), wk =   0.0017361
        k(  585) = (  -0.0601609   0.6035582   0.0000000), wk =   0.0017361
        k(  586) = (  -0.0481287   0.5827459   0.0000000), wk =   0.0017361
        k(  587) = (  -0.0360965   0.5619335   0.0000000), wk =   0.0017361
        k(  588) = (  -0.0240644   0.5411212   0.0000000), wk =   0.0017361
        k(  589) = (  -0.0120322   0.5203088   0.0000000), wk =   0.0017361
        k(  590) = (   0.0000000   0.4994965   0.0000000), wk =   0.0017361
        k(  591) = (   0.0120322   0.4786841   0.0000000), wk =   0.0017361
        k(  592) = (   0.0240644   0.4578718   0.0000000), wk =   0.0017361
        k(  593) = (   0.0360965   0.4370594   0.0000000), wk =   0.0017361
        k(  594) = (   0.0481287   0.4162470   0.0000000), wk =   0.0017361
        k(  595) = (   0.0601609   0.3954347   0.0000000), wk =   0.0017361
        k(  596) = (   0.0721931   0.3746223   0.0000000), wk =   0.0017361
        k(  597) = (   0.0842252   0.3538100   0.0000000), wk =   0.0017361
        k(  598) = (   0.0962574   0.3329976   0.0000000), wk =   0.0017361
        k(  599) = (   0.1082896   0.3121853   0.0000000), wk =   0.0017361
        k(  600) = (   0.1203218   0.2913729   0.0000000), wk =   0.0017361
        k(  601) = (   0.1323539   0.2705606   0.0000000), wk =   0.0017361
        k(  602) = (   0.1564183   0.2705606   0.0000000), wk =   0.0017361
        k(  603) = (   0.1684505   0.2497482   0.0000000), wk =   0.0017361
        k(  604) = (   0.1804826   0.2289359   0.0000000), wk =   0.0017361
        k(  605) = (   0.1925148   0.2081235   0.0000000), wk =   0.0017361
        k(  606) = (   0.2045470   0.1873112   0.0000000), wk =   0.0017361
        k(  607) = (   0.2165792   0.1664988   0.0000000), wk =   0.0017361
        k(  608) = (   0.2286114   0.1456865   0.0000000), wk =   0.0017361
        k(  609) = (   0.2406435   0.1248741   0.0000000), wk =   0.0017361
        k(  610) = (   0.2526757   0.1040618   0.0000000), wk =   0.0017361
        k(  611) = (   0.2647079   0.0832494   0.0000000), wk =   0.0017361
        k(  612) = (   0.2767401   0.0624371   0.0000000), wk =   0.0017361
        k(  613) = (   0.2887722   0.0416247   0.0000000), wk =   0.0017361
        k(  614) = (   0.3008044   0.0208124   0.0000000), wk =   0.0017361
        k(  615) = (   0.3128366   0.0000000   0.0000000), wk =   0.0017361
        k(  616) = (   0.3248688  -0.0208124   0.0000000), wk =   0.0017361
        k(  617) = (   0.3369009  -0.0416247   0.0000000), wk =   0.0017361
        k(  618) = (   0.3489331  -0.0624371   0.0000000), wk =   0.0017361
        k(  619) = (   0.3609653  -0.0832494   0.0000000), wk =   0.0017361
        k(  620) = (   0.3729975  -0.1040618   0.0000000), wk =   0.0017361
        k(  621) = (   0.3850296  -0.1248741   0.0000000), wk =   0.0017361
        k(  622) = (   0.3970618  -0.1456865   0.0000000), wk =   0.0017361
        k(  623) = (   0.4090940  -0.1664988   0.0000000), wk =   0.0017361
        k(  624) = (   0.4211262  -0.1873112   0.0000000), wk =   0.0017361
        k(  625) = (   0.4331584  -0.2081235   0.0000000), wk =   0.0017361
        k(  626) = (  -0.1323539   0.7700570   0.0000000), wk =   0.0017361
        k(  627) = (  -0.1203218   0.7492447   0.0000000), wk =   0.0017361
        k(  628) = (  -0.1082896   0.7284323   0.0000000), wk =   0.0017361
        k(  629) = (  -0.0962574   0.7076200   0.0000000), wk =   0.0017361
        k(  630) = (  -0.0842252   0.6868076   0.0000000), wk =   0.0017361
        k(  631) = (  -0.0721931   0.6659953   0.0000000), wk =   0.0017361
        k(  632) = (  -0.0601609   0.6451829   0.0000000), wk =   0.0017361
        k(  633) = (  -0.0481287   0.6243706   0.0000000), wk =   0.0017361
        k(  634) = (  -0.0360965   0.6035582   0.0000000), wk =   0.0017361
        k(  635) = (  -0.0240644   0.5827459   0.0000000), wk =   0.0017361
        k(  636) = (  -0.0120322   0.5619335   0.0000000), wk =   0.0017361
        k(  637) = (   0.0000000   0.5411212   0.0000000), wk =   0.0017361
        k(  638) = (   0.0120322   0.5203088   0.0000000), wk =   0.0017361
        k(  639) = (   0.0240644   0.4994965   0.0000000), wk =   0.0017361
        k(  640) = (   0.0360965   0.4786841   0.0000000), wk =   0.0017361
        k(  641) = (   0.0481287   0.4578718   0.0000000), wk =   0.0017361
        k(  642) = (   0.0601609   0.4370594   0.0000000), wk =   0.0017361
        k(  643) = (   0.0721931   0.4162470   0.0000000), wk =   0.0017361
        k(  644) = (   0.0842252   0.3954347   0.0000000), wk =   0.0017361
        k(  645) = (   0.0962574   0.3746223   0.0000000), wk =   0.0017361
        k(  646) = (   0.1082896   0.3538100   0.0000000), wk =   0.0017361
        k(  647) = (   0.1203218   0.3329976   0.0000000), wk =   0.0017361
        k(  648) = (   0.1323539   0.3121853   0.0000000), wk =   0.0017361
        k(  649) = (   0.1443861   0.2913729   0.0000000), wk =   0.0017361
        k(  650) = (   0.1684505   0.2913729   0.0000000), wk =   0.0017361
        k(  651) = (   0.1804826   0.2705606   0.0000000), wk =   0.0017361
        k(  652) = (   0.1925148   0.2497482   0.0000000), wk =   0.0017361
        k(  653) = (   0.2045470   0.2289359   0.0000000), wk =   0.0017361
        k(  654) = (   0.2165792   0.2081235   0.0000000), wk =   0.0017361
        k(  655) = (   0.2286114   0.1873112   0.0000000), wk =   0.0017361
        k(  656) = (   0.2406435   0.1664988   0.0000000), wk =   0.0017361
        k(  657) = (   0.2526757   0.1456865   0.0000000), wk =   0.0017361
        k(  658) = (   0.2647079   0.1248741   0.0000000), wk =   0.0017361
        k(  659) = (   0.2767401   0.1040618   0.0000000), wk =   0.0017361
        k(  660) = (   0.2887722   0.0832494   0.0000000), wk =   0.0017361
        k(  661) = (   0.3008044   0.0624371   0.0000000), wk =   0.0017361
        k(  662) = (   0.3128366   0.0416247   0.0000000), wk =   0.0017361
        k(  663) = (   0.3248688   0.0208124   0.0000000), wk =   0.0017361
        k(  664) = (   0.3369009   0.0000000   0.0000000), wk =   0.0017361
        k(  665) = (   0.3489331  -0.0208124   0.0000000), wk =   0.0017361
        k(  666) = (   0.3609653  -0.0416247   0.0000000), wk =   0.0017361
        k(  667) = (   0.3729975  -0.0624371   0.0000000), wk =   0.0017361
        k(  668) = (   0.3850296  -0.0832494   0.0000000), wk =   0.0017361
        k(  669) = (   0.3970618  -0.1040618   0.0000000), wk =   0.0017361
        k(  670) = (   0.4090940  -0.1248741   0.0000000), wk =   0.0017361
        k(  671) = (   0.4211262  -0.1456865   0.0000000), wk =   0.0017361
        k(  672) = (   0.4331584  -0.1664988   0.0000000), wk =   0.0017361
        k(  673) = (   0.4451905  -0.1873112   0.0000000), wk =   0.0017361
        k(  674) = (  -0.1203218   0.7908694   0.0000000), wk =   0.0017361
        k(  675) = (  -0.1082896   0.7700570   0.0000000), wk =   0.0017361
        k(  676) = (  -0.0962574   0.7492447   0.0000000), wk =   0.0017361
        k(  677) = (  -0.0842252   0.7284323   0.0000000), wk =   0.0017361
        k(  678) = (  -0.0721931   0.7076200   0.0000000), wk =   0.0017361
        k(  679) = (  -0.0601609   0.6868076   0.0000000), wk =   0.0017361
        k(  680) = (  -0.0481287   0.6659953   0.0000000), wk =   0.0017361
        k(  681) = (  -0.0360965   0.6451829   0.0000000), wk =   0.0017361
        k(  682) = (  -0.0240644   0.6243706   0.0000000), wk =   0.0017361
        k(  683) = (  -0.0120322   0.6035582   0.0000000), wk =   0.0017361
        k(  684) = (   0.0000000   0.5827459   0.0000000), wk =   0.0017361
        k(  685) = (   0.0120322   0.5619335   0.0000000), wk =   0.0017361
        k(  686) = (   0.0240644   0.5411212   0.0000000), wk =   0.0017361
        k(  687) = (   0.0360965   0.5203088   0.0000000), wk =   0.0017361
        k(  688) = (   0.0481287   0.4994965   0.0000000), wk =   0.0017361
        k(  689) = (   0.0601609   0.4786841   0.0000000), wk =   0.0017361
        k(  690) = (   0.0721931   0.4578718   0.0000000), wk =   0.0017361
        k(  691) = (   0.0842252   0.4370594   0.0000000), wk =   0.0017361
        k(  692) = (   0.0962574   0.4162470   0.0000000), wk =   0.0017361
        k(  693) = (   0.1082896   0.3954347   0.0000000), wk =   0.0017361
        k(  694) = (   0.1203218   0.3746223   0.0000000), wk =   0.0017361
        k(  695) = (   0.1323539   0.3538100   0.0000000), wk =   0.0017361
        k(  696) = (   0.1443861   0.3329976   0.0000000), wk =   0.0017361
        k(  697) = (   0.1564183   0.3121853   0.0000000), wk =   0.0017361
        k(  698) = (   0.1804826   0.3121853   0.0000000), wk =   0.0017361
        k(  699) = (   0.1925148   0.2913729   0.0000000), wk =   0.0017361
        k(  700) = (   0.2045470   0.2705606   0.0000000), wk =   0.0017361
        k(  701) = (   0.2165792   0.2497482   0.0000000), wk =   0.0017361
        k(  702) = (   0.2286114   0.2289359   0.0000000), wk =   0.0017361
        k(  703) = (   0.2406435   0.2081235   0.0000000), wk =   0.0017361
        k(  704) = (   0.2526757   0.1873112   0.0000000), wk =   0.0017361
        k(  705) = (   0.2647079   0.1664988   0.0000000), wk =   0.0017361
        k(  706) = (   0.2767401   0.1456865   0.0000000), wk =   0.0017361
        k(  707) = (   0.2887722   0.1248741   0.0000000), wk =   0.0017361
        k(  708) = (   0.3008044   0.1040618   0.0000000), wk =   0.0017361
        k(  709) = (   0.3128366   0.0832494   0.0000000), wk =   0.0017361
        k(  710) = (   0.3248688   0.0624371   0.0000000), wk =   0.0017361
        k(  711) = (   0.3369009   0.0416247   0.0000000), wk =   0.0017361
        k(  712) = (   0.3489331   0.0208124   0.0000000), wk =   0.0017361
        k(  713) = (   0.3609653   0.0000000   0.0000000), wk =   0.0017361
        k(  714) = (   0.3729975  -0.0208124   0.0000000), wk =   0.0017361
        k(  715) = (   0.3850296  -0.0416247   0.0000000), wk =   0.0017361
        k(  716) = (   0.3970618  -0.0624371   0.0000000), wk =   0.0017361
        k(  717) = (   0.4090940  -0.0832494   0.0000000), wk =   0.0017361
        k(  718) = (   0.4211262  -0.1040618   0.0000000), wk =   0.0017361
        k(  719) = (   0.4331584  -0.1248741   0.0000000), wk =   0.0017361
        k(  720) = (   0.4451905  -0.1456865   0.0000000), wk =   0.0017361
        k(  721) = (   0.4572227  -0.1664988   0.0000000), wk =   0.0017361
        k(  722) = (  -0.1082896   0.8116817   0.0000000), wk =   0.0017361
        k(  723) = (  -0.0962574   0.7908694   0.0000000), wk =   0.0017361
        k(  724) = (  -0.0842252   0.7700570   0.0000000), wk =   0.0017361
        k(  725) = (  -0.0721931   0.7492447   0.0000000), wk =   0.0017361
        k(  726) = (  -0.0601609   0.7284323   0.0000000), wk =   0.0017361
        k(  727) = (  -0.0481287   0.7076200   0.0000000), wk =   0.0017361
        k(  728) = (  -0.0360965   0.6868076   0.0000000), wk =   0.0017361
        k(  729) = (  -0.0240644   0.6659953   0.0000000), wk =   0.0017361
        k(  730) = (  -0.0120322   0.6451829   0.0000000), wk =   0.0017361
        k(  731) = (   0.0000000   0.6243706   0.0000000), wk =   0.0017361
        k(  732) = (   0.0120322   0.6035582   0.0000000), wk =   0.0017361
        k(  733) = (   0.0240644   0.5827459   0.0000000), wk =   0.0017361
        k(  734) = (   0.0360965   0.5619335   0.0000000), wk =   0.0017361
        k(  735) = (   0.0481287   0.5411212   0.0000000), wk =   0.0017361
        k(  736) = (   0.0601609   0.5203088   0.0000000), wk =   0.0017361
        k(  737) = (   0.0721931   0.4994965   0.0000000), wk =   0.0017361
        k(  738) = (   0.0842252   0.4786841   0.0000000), wk =   0.0017361
        k(  739) = (   0.0962574   0.4578718   0.0000000), wk =   0.0017361
        k(  740) = (   0.1082896   0.4370594   0.0000000), wk =   0.0017361
        k(  741) = (   0.1203218   0.4162470   0.0000000), wk =   0.0017361
        k(  742) = (   0.1323539   0.3954347   0.0000000), wk =   0.0017361
        k(  743) = (   0.1443861   0.3746223   0.0000000), wk =   0.0017361
        k(  744) = (   0.1564183   0.3538100   0.0000000), wk =   0.0017361
        k(  745) = (   0.1684505   0.3329976   0.0000000), wk =   0.0017361
        k(  746) = (   0.1925148   0.3329976   0.0000000), wk =   0.0017361
        k(  747) = (   0.2045470   0.3121853   0.0000000), wk =   0.0017361
        k(  748) = (   0.2165792   0.2913729   0.0000000), wk =   0.0017361
        k(  749) = (   0.2286114   0.2705606   0.0000000), wk =   0.0017361
        k(  750) = (   0.2406435   0.2497482   0.0000000), wk =   0.0017361
        k(  751) = (   0.2526757   0.2289359   0.0000000), wk =   0.0017361
        k(  752) = (   0.2647079   0.2081235   0.0000000), wk =   0.0017361
        k(  753) = (   0.2767401   0.1873112   0.0000000), wk =   0.0017361
        k(  754) = (   0.2887722   0.1664988   0.0000000), wk =   0.0017361
        k(  755) = (   0.3008044   0.1456865   0.0000000), wk =   0.0017361
        k(  756) = (   0.3128366   0.1248741   0.0000000), wk =   0.0017361
        k(  757) = (   0.3248688   0.1040618   0.0000000), wk =   0.0017361
        k(  758) = (   0.3369009   0.0832494   0.0000000), wk =   0.0017361
        k(  759) = (   0.3489331   0.0624371   0.0000000), wk =   0.0017361
        k(  760) = (   0.3609653   0.0416247   0.0000000), wk =   0.0017361
        k(  761) = (   0.3729975   0.0208124   0.0000000), wk =   0.0017361
        k(  762) = (   0.3850296   0.0000000   0.0000000), wk =   0.0017361
        k(  763) = (   0.3970618  -0.0208124   0.0000000), wk =   0.0017361
        k(  764) = (   0.4090940  -0.0416247   0.0000000), wk =   0.0017361
        k(  765) = (   0.4211262  -0.0624371   0.0000000), wk =   0.0017361
        k(  766) = (   0.4331584  -0.0832494   0.0000000), wk =   0.0017361
        k(  767) = (   0.4451905  -0.1040618   0.0000000), wk =   0.0017361
        k(  768) = (   0.4572227  -0.1248741   0.0000000), wk =   0.0017361
        k(  769) = (   0.4692549  -0.1456865   0.0000000), wk =   0.0017361
        k(  770) = (  -0.0962574   0.8324941   0.0000000), wk =   0.0017361
        k(  771) = (  -0.0842252   0.8116817   0.0000000), wk =   0.0017361
        k(  772) = (  -0.0721931   0.7908694   0.0000000), wk =   0.0017361
        k(  773) = (  -0.0601609   0.7700570   0.0000000), wk =   0.0017361
        k(  774) = (  -0.0481287   0.7492447   0.0000000), wk =   0.0017361
        k(  775) = (  -0.0360965   0.7284323   0.0000000), wk =   0.0017361
        k(  776) = (  -0.0240644   0.7076200   0.0000000), wk =   0.0017361
        k(  777) = (  -0.0120322   0.6868076   0.0000000), wk =   0.0017361
        k(  778) = (   0.0000000   0.6659953   0.0000000), wk =   0.0017361
        k(  779) = (   0.0120322   0.6451829   0.0000000), wk =   0.0017361
        k(  780) = (   0.0240644   0.6243706   0.0000000), wk =   0.0017361
        k(  781) = (   0.0360965   0.6035582   0.0000000), wk =   0.0017361
        k(  782) = (   0.0481287   0.5827459   0.0000000), wk =   0.0017361
        k(  783) = (   0.0601609   0.5619335   0.0000000), wk =   0.0017361
        k(  784) = (   0.0721931   0.5411212   0.0000000), wk =   0.0017361
        k(  785) = (   0.0842252   0.5203088   0.0000000), wk =   0.0017361
        k(  786) = (   0.0962574   0.4994965   0.0000000), wk =   0.0017361
        k(  787) = (   0.1082896   0.4786841   0.0000000), wk =   0.0017361
        k(  788) = (   0.1203218   0.4578718   0.0000000), wk =   0.0017361
        k(  789) = (   0.1323539   0.4370594   0.0000000), wk =   0.0017361
        k(  790) = (   0.1443861   0.4162470   0.0000000), wk =   0.0017361
        k(  791) = (   0.1564183   0.3954347   0.0000000), wk =   0.0017361
        k(  792) = (   0.1684505   0.3746223   0.0000000), wk =   0.0017361
        k(  793) = (   0.1804826   0.3538100   0.0000000), wk =   0.0017361
        k(  794) = (   0.2045470   0.3538100   0.0000000), wk =   0.0017361
        k(  795) = (   0.2165792   0.3329976   0.0000000), wk =   0.0017361
        k(  796) = (   0.2286114   0.3121853   0.0000000), wk =   0.0017361
        k(  797) = (   0.2406435   0.2913729   0.0000000), wk =   0.0017361
        k(  798) = (   0.2526757   0.2705606   0.0000000), wk =   0.0017361
        k(  799) = (   0.2647079   0.2497482   0.0000000), wk =   0.0017361
        k(  800) = (   0.2767401   0.2289359   0.0000000), wk =   0.0017361
        k(  801) = (   0.2887722   0.2081235   0.0000000), wk =   0.0017361
        k(  802) = (   0.3008044   0.1873112   0.0000000), wk =   0.0017361
        k(  803) = (   0.3128366   0.1664988   0.0000000), wk =   0.0017361
        k(  804) = (   0.3248688   0.1456865   0.0000000), wk =   0.0017361
        k(  805) = (   0.3369009   0.1248741   0.0000000), wk =   0.0017361
        k(  806) = (   0.3489331   0.1040618   0.0000000), wk =   0.0017361
        k(  807) = (   0.3609653   0.0832494   0.0000000), wk =   0.0017361
        k(  808) = (   0.3729975   0.0624371   0.0000000), wk =   0.0017361
        k(  809) = (   0.3850296   0.0416247   0.0000000), wk =   0.0017361
        k(  810) = (   0.3970618   0.0208124   0.0000000), wk =   0.0017361
        k(  811) = (   0.4090940   0.0000000   0.0000000), wk =   0.0017361
        k(  812) = (   0.4211262  -0.0208124   0.0000000), wk =   0.0017361
        k(  813) = (   0.4331584  -0.0416247   0.0000000), wk =   0.0017361
        k(  814) = (   0.4451905  -0.0624371   0.0000000), wk =   0.0017361
        k(  815) = (   0.4572227  -0.0832494   0.0000000), wk =   0.0017361
        k(  816) = (   0.4692549  -0.1040618   0.0000000), wk =   0.0017361
        k(  817) = (   0.4812871  -0.1248741   0.0000000), wk =   0.0017361
        k(  818) = (  -0.0842252   0.8533064   0.0000000), wk =   0.0017361
        k(  819) = (  -0.0721931   0.8324941   0.0000000), wk =   0.0017361
        k(  820) = (  -0.0601609   0.8116817   0.0000000), wk =   0.0017361
        k(  821) = (  -0.0481287   0.7908694   0.0000000), wk =   0.0017361
        k(  822) = (  -0.0360965   0.7700570   0.0000000), wk =   0.0017361
        k(  823) = (  -0.0240644   0.7492447   0.0000000), wk =   0.0017361
        k(  824) = (  -0.0120322   0.7284323   0.0000000), wk =   0.0017361
        k(  825) = (   0.0000000   0.7076200   0.0000000), wk =   0.0017361
        k(  826) = (   0.0120322   0.6868076   0.0000000), wk =   0.0017361
        k(  827) = (   0.0240644   0.6659953   0.0000000), wk =   0.0017361
        k(  828) = (   0.0360965   0.6451829   0.0000000), wk =   0.0017361
        k(  829) = (   0.0481287   0.6243706   0.0000000), wk =   0.0017361
        k(  830) = (   0.0601609   0.6035582   0.0000000), wk =   0.0017361
        k(  831) = (   0.0721931   0.5827459   0.0000000), wk =   0.0017361
        k(  832) = (   0.0842252   0.5619335   0.0000000), wk =   0.0017361
        k(  833) = (   0.0962574   0.5411212   0.0000000), wk =   0.0017361
        k(  834) = (   0.1082896   0.5203088   0.0000000), wk =   0.0017361
        k(  835) = (   0.1203218   0.4994965   0.0000000), wk =   0.0017361
        k(  836) = (   0.1323539   0.4786841   0.0000000), wk =   0.0017361
        k(  837) = (   0.1443861   0.4578718   0.0000000), wk =   0.0017361
        k(  838) = (   0.1564183   0.4370594   0.0000000), wk =   0.0017361
        k(  839) = (   0.1684505   0.4162470   0.0000000), wk =   0.0017361
        k(  840) = (   0.1804826   0.3954347   0.0000000), wk =   0.0017361
        k(  841) = (   0.1925148   0.3746223   0.0000000), wk =   0.0017361
        k(  842) = (   0.2165792   0.3746223   0.0000000), wk =   0.0017361
        k(  843) = (   0.2286114   0.3538100   0.0000000), wk =   0.0017361
        k(  844) = (   0.2406435   0.3329976   0.0000000), wk =   0.0017361
        k(  845) = (   0.2526757   0.3121853   0.0000000), wk =   0.0017361
        k(  846) = (   0.2647079   0.2913729   0.0000000), wk =   0.0017361
        k(  847) = (   0.2767401   0.2705606   0.0000000), wk =   0.0017361
        k(  848) = (   0.2887722   0.2497482   0.0000000), wk =   0.0017361
        k(  849) = (   0.3008044   0.2289359   0.0000000), wk =   0.0017361
        k(  850) = (   0.3128366   0.2081235   0.0000000), wk =   0.0017361
        k(  851) = (   0.3248688   0.1873112   0.0000000), wk =   0.0017361
        k(  852) = (   0.3369009   0.1664988   0.0000000), wk =   0.0017361
        k(  853) = (   0.3489331   0.1456865   0.0000000), wk =   0.0017361
        k(  854) = (   0.3609653   0.1248741   0.0000000), wk =   0.0017361
        k(  855) = (   0.3729975   0.1040618   0.0000000), wk =   0.0017361
        k(  856) = (   0.3850296   0.0832494   0.0000000), wk =   0.0017361
        k(  857) = (   0.3970618   0.0624371   0.0000000), wk =   0.0017361
        k(  858) = (   0.4090940   0.0416247   0.0000000), wk =   0.0017361
        k(  859) = (   0.4211262   0.0208124   0.0000000), wk =   0.0017361
        k(  860) = (   0.4331584   0.0000000   0.0000000), wk =   0.0017361
        k(  861) = (   0.4451905  -0.0208124   0.0000000), wk =   0.0017361
        k(  862) = (   0.4572227  -0.0416247   0.0000000), wk =   0.0017361
        k(  863) = (   0.4692549  -0.0624371   0.0000000), wk =   0.0017361
        k(  864) = (   0.4812871  -0.0832494   0.0000000), wk =   0.0017361
        k(  865) = (   0.4933192  -0.1040618   0.0000000), wk =   0.0017361
        k(  866) = (  -0.0721931   0.8741188   0.0000000), wk =   0.0017361
        k(  867) = (  -0.0601609   0.8533064   0.0000000), wk =   0.0017361
        k(  868) = (  -0.0481287   0.8324941   0.0000000), wk =   0.0017361
        k(  869) = (  -0.0360965   0.8116817   0.0000000), wk =   0.0017361
        k(  870) = (  -0.0240644   0.7908694   0.0000000), wk =   0.0017361
        k(  871) = (  -0.0120322   0.7700570   0.0000000), wk =   0.0017361
        k(  872) = (   0.0000000   0.7492447   0.0000000), wk =   0.0017361
        k(  873) = (   0.0120322   0.7284323   0.0000000), wk =   0.0017361
        k(  874) = (   0.0240644   0.7076200   0.0000000), wk =   0.0017361
        k(  875) = (   0.0360965   0.6868076   0.0000000), wk =   0.0017361
        k(  876) = (   0.0481287   0.6659953   0.0000000), wk =   0.0017361
        k(  877) = (   0.0601609   0.6451829   0.0000000), wk =   0.0017361
        k(  878) = (   0.0721931   0.6243706   0.0000000), wk =   0.0017361
        k(  879) = (   0.0842252   0.6035582   0.0000000), wk =   0.0017361
        k(  880) = (   0.0962574   0.5827459   0.0000000), wk =   0.0017361
        k(  881) = (   0.1082896   0.5619335   0.0000000), wk =   0.0017361
        k(  882) = (   0.1203218   0.5411212   0.0000000), wk =   0.0017361
        k(  883) = (   0.1323539   0.5203088   0.0000000), wk =   0.0017361
        k(  884) = (   0.1443861   0.4994965   0.0000000), wk =   0.0017361
        k(  885) = (   0.1564183   0.4786841   0.0000000), wk =   0.0017361
        k(  886) = (   0.1684505   0.4578718   0.0000000), wk =   0.0017361
        k(  887) = (   0.1804826   0.4370594   0.0000000), wk =   0.0017361
        k(  888) = (   0.1925148   0.4162470   0.0000000), wk =   0.0017361
        k(  889) = (   0.2045470   0.3954347   0.0000000), wk =   0.0017361
        k(  890) = (   0.2286114   0.3954347   0.0000000), wk =   0.0017361
        k(  891) = (   0.2406435   0.3746223   0.0000000), wk =   0.0017361
        k(  892) = (   0.2526757   0.3538100   0.0000000), wk =   0.0017361
        k(  893) = (   0.2647079   0.3329976   0.0000000), wk =   0.0017361
        k(  894) = (   0.2767401   0.3121853   0.0000000), wk =   0.0017361
        k(  895) = (   0.2887722   0.2913729   0.0000000), wk =   0.0017361
        k(  896) = (   0.3008044   0.2705606   0.0000000), wk =   0.0017361
        k(  897) = (   0.3128366   0.2497482   0.0000000), wk =   0.0017361
        k(  898) = (   0.3248688   0.2289359   0.0000000), wk =   0.0017361
        k(  899) = (   0.3369009   0.2081235   0.0000000), wk =   0.0017361
        k(  900) = (   0.3489331   0.1873112   0.0000000), wk =   0.0017361
        k(  901) = (   0.3609653   0.1664988   0.0000000), wk =   0.0017361
        k(  902) = (   0.3729975   0.1456865   0.0000000), wk =   0.0017361
        k(  903) = (   0.3850296   0.1248741   0.0000000), wk =   0.0017361
        k(  904) = (   0.3970618   0.1040618   0.0000000), wk =   0.0017361
        k(  905) = (   0.4090940   0.0832494   0.0000000), wk =   0.0017361
        k(  906) = (   0.4211262   0.0624371   0.0000000), wk =   0.0017361
        k(  907) = (   0.4331584   0.0416247   0.0000000), wk =   0.0017361
        k(  908) = (   0.4451905   0.0208124   0.0000000), wk =   0.0017361
        k(  909) = (   0.4572227   0.0000000   0.0000000), wk =   0.0017361
        k(  910) = (   0.4692549  -0.0208124   0.0000000), wk =   0.0017361
        k(  911) = (   0.4812871  -0.0416247   0.0000000), wk =   0.0017361
        k(  912) = (   0.4933192  -0.0624371   0.0000000), wk =   0.0017361
        k(  913) = (   0.5053514  -0.0832494   0.0000000), wk =   0.0017361
        k(  914) = (  -0.0601609   0.8949312   0.0000000), wk =   0.0017361
        k(  915) = (  -0.0481287   0.8741188   0.0000000), wk =   0.0017361
        k(  916) = (  -0.0360965   0.8533064   0.0000000), wk =   0.0017361
        k(  917) = (  -0.0240644   0.8324941   0.0000000), wk =   0.0017361
        k(  918) = (  -0.0120322   0.8116817   0.0000000), wk =   0.0017361
        k(  919) = (   0.0000000   0.7908694   0.0000000), wk =   0.0017361
        k(  920) = (   0.0120322   0.7700570   0.0000000), wk =   0.0017361
        k(  921) = (   0.0240644   0.7492447   0.0000000), wk =   0.0017361
        k(  922) = (   0.0360965   0.7284323   0.0000000), wk =   0.0017361
        k(  923) = (   0.0481287   0.7076200   0.0000000), wk =   0.0017361
        k(  924) = (   0.0601609   0.6868076   0.0000000), wk =   0.0017361
        k(  925) = (   0.0721931   0.6659953   0.0000000), wk =   0.0017361
        k(  926) = (   0.0842252   0.6451829   0.0000000), wk =   0.0017361
        k(  927) = (   0.0962574   0.6243706   0.0000000), wk =   0.0017361
        k(  928) = (   0.1082896   0.6035582   0.0000000), wk =   0.0017361
        k(  929) = (   0.1203218   0.5827459   0.0000000), wk =   0.0017361
        k(  930) = (   0.1323539   0.5619335   0.0000000), wk =   0.0017361
        k(  931) = (   0.1443861   0.5411212   0.0000000), wk =   0.0017361
        k(  932) = (   0.1564183   0.5203088   0.0000000), wk =   0.0017361
        k(  933) = (   0.1684505   0.4994965   0.0000000), wk =   0.0017361
        k(  934) = (   0.1804826   0.4786841   0.0000000), wk =   0.0017361
        k(  935) = (   0.1925148   0.4578718   0.0000000), wk =   0.0017361
        k(  936) = (   0.2045470   0.4370594   0.0000000), wk =   0.0017361
        k(  937) = (   0.2165792   0.4162470   0.0000000), wk =   0.0017361
        k(  938) = (   0.2406435   0.4162470   0.0000000), wk =   0.0017361
        k(  939) = (   0.2526757   0.3954347   0.0000000), wk =   0.0017361
        k(  940) = (   0.2647079   0.3746223   0.0000000), wk =   0.0017361
        k(  941) = (   0.2767401   0.3538100   0.0000000), wk =   0.0017361
        k(  942) = (   0.2887722   0.3329976   0.0000000), wk =   0.0017361
        k(  943) = (   0.3008044   0.3121853   0.0000000), wk =   0.0017361
        k(  944) = (   0.3128366   0.2913729   0.0000000), wk =   0.0017361
        k(  945) = (   0.3248688   0.2705606   0.0000000), wk =   0.0017361
        k(  946) = (   0.3369009   0.2497482   0.0000000), wk =   0.0017361
        k(  947) = (   0.3489331   0.2289359   0.0000000), wk =   0.0017361
        k(  948) = (   0.3609653   0.2081235   0.0000000), wk =   0.0017361
        k(  949) = (   0.3729975   0.1873112   0.0000000), wk =   0.0017361
        k(  950) = (   0.3850296   0.1664988   0.0000000), wk =   0.0017361
        k(  951) = (   0.3970618   0.1456865   0.0000000), wk =   0.0017361
        k(  952) = (   0.4090940   0.1248741   0.0000000), wk =   0.0017361
        k(  953) = (   0.4211262   0.1040618   0.0000000), wk =   0.0017361
        k(  954) = (   0.4331584   0.0832494   0.0000000), wk =   0.0017361
        k(  955) = (   0.4451905   0.0624371   0.0000000), wk =   0.0017361
        k(  956) = (   0.4572227   0.0416247   0.0000000), wk =   0.0017361
        k(  957) = (   0.4692549   0.0208124   0.0000000), wk =   0.0017361
        k(  958) = (   0.4812871   0.0000000   0.0000000), wk =   0.0017361
        k(  959) = (   0.4933192  -0.0208124   0.0000000), wk =   0.0017361
        k(  960) = (   0.5053514  -0.0416247   0.0000000), wk =   0.0017361
        k(  961) = (   0.5173836  -0.0624371   0.0000000), wk =   0.0017361
        k(  962) = (  -0.0481287   0.9157435   0.0000000), wk =   0.0017361
        k(  963) = (  -0.0360965   0.8949312   0.0000000), wk =   0.0017361
        k(  964) = (  -0.0240644   0.8741188   0.0000000), wk =   0.0017361
        k(  965) = (  -0.0120322   0.8533064   0.0000000), wk =   0.0017361
[...]
     1.0000   0.0000   0.0000   0.0000   0.0000   0.0000   0.0000   0.0000
     0.0000   0.0000   0.0000   0.0000   0.0000   0.0000   0.0000   0.0000
     0.0000   0.0000   0.0000   0.0000   0.0000   0.0000   0.0000   0.0000
     0.0000   0.0000   0.0000   0.0000

          k =-0.2527-0.5619 0.0000 ( 12052 PWs)   bands (ev):

   -21.1173 -14.1210  -9.4778  -8.1698  -7.1733  -6.1548  -4.7758  -3.8789
    -3.0143  -0.4374   2.0331   2.7113   3.1865   4.3012   4.7003   6.2968
     6.7700   7.1086   7.3326   7.8072   7.9017   8.1709   8.3669   8.5305
     8.8198   9.1279   9.4284   9.6064  10.1078  10.5622  11.0950  11.5307
    11.9642  12.2531  12.5379  12.9377

     occupation numbers 
     1.0000   1.0000   1.0000   1.0000   1.0000   1.0000   1.0000   1.0000
     1.0000   0.0000   0.0000   0.0000   0.0000   0.0000   0.0000   0.0000
     0.0000   0.0000   0.0000   0.0000   0.0000   0.0000   0.0000   0.0000
     0.0000   0.0000   0.0000   0.0000   0.0000   0.0000   0.0000   0.0000
     0.0000   0.0000   0.0000   0.0000

          k =-0.2406-0.5827 0.0000 ( 12057 PWs)   bands (ev):

   -21.1176 -14.1261  -9.4402  -8.1012  -7.2409  -6.1581  -4.7955  -4.0537
    -2.9704  -0.3625   2.1325   2.8058   3.3165   4.0968   4.6778   6.2592
     6.7314   7.0256   7.3010   7.7054   7.8579   8.2033   8.4140   8.7254
     8.9503   9.3170   9.5266   9.6754  10.1059  10.6915  11.2923  11.4446
    11.8243  12.0888  12.3830  12.6874

     occupation numbers 
     1.0000   1.0000   1.0000   1.0000   1.0000   1.0000   1.0000   1.0000
     1.0000   0.0000   0.0000   0.0000   0.0000   0.0000   0.0000   0.0000
     0.0000   0.0000   0.0000   0.0000   0.0000   0.0000   0.0000   0.0000
     0.0000   0.0000   0.0000   0.0000   0.0000   0.0000   0.0000   0.0000
     0.0000   0.0000   0.0000   0.0000

          k =-0.2286-0.6036 0.0000 ( 12052 PWs)   bands (ev):

   -21.1179 -14.1320  -9.3940  -8.0161  -7.3214  -6.1619  -4.8217  -4.2493
    -2.9202  -0.2730   2.2324   2.8935   3.4475   3.9298   4.6838   6.2106
     6.6669   6.9208   7.2389   7.6783   7.8026   8.1907   8.5286   8.9384
     9.0790   9.4239   9.6679   9.7807  10.2052  10.7415  11.4122  11.4410
    11.7092  11.8403  12.2980  12.3868

     occupation numbers 
     1.0000   1.0000   1.0000   1.0000   1.0000   1.0000   1.0000   1.0000
     1.0000   0.0000   0.0000   0.0000   0.0000   0.0000   0.0000   0.0000
     0.0000   0.0000   0.0000   0.0000   0.0000   0.0000   0.0000   0.0000
     0.0000   0.0000   0.0000   0.0000   0.0000   0.0000   0.0000   0.0000
     0.0000   0.0000   0.0000   0.0000

          k =-0.2166-0.6244 0.0000 ( 12065 PWs)   bands (ev):

   -21.1182 -14.1383  -9.3407  -7.9174  -7.4102  -6.1657  -4.8599  -4.4468
    -2.8673  -0.1719   2.3207   2.9646   3.4235   3.9669   4.7260   6.1582
     6.5851   6.8189   7.1342   7.6795   7.7832   8.1778   8.6550   9.0677
     9.2759   9.4643   9.7931   9.9244  10.3774  10.7126  11.3068  11.3728
    11.7032  11.8492  12.1328  12.3332

     occupation numbers 
     1.0000   1.0000   1.0000   1.0000   1.0000   1.0000   1.0000   1.0000
     1.0000   0.0000   0.0000   0.0000   0.0000   0.0000   0.0000   0.0000
     0.0000   0.0000   0.0000   0.0000   0.0000   0.0000   0.0000   0.0000
     0.0000   0.0000   0.0000   0.0000   0.0000   0.0000   0.0000   0.0000
     0.0000   0.0000   0.0000   0.0000

          k =-0.2045-0.6452 0.0000 ( 12053 PWs)   bands (ev):

   -21.1185 -14.1445  -9.2830  -7.8093  -7.5024  -6.1688  -4.9281  -4.6161
    -2.8153  -0.0623   2.3779   3.0058   3.3058   4.1297   4.8453   6.1070
     6.4872   6.7356   7.0335   7.6390   7.7970   8.2145   8.7285   9.1672
     9.4153   9.5311   9.8130  10.0985  10.5381  10.7141  11.1544  11.2633
    11.7094  11.9834  12.1095  12.4397

     occupation numbers 
     1.0000   1.0000   1.0000   1.0000   1.0000   1.0000   1.0000   1.0000
     1.0000   0.0000   0.0000   0.0000   0.0000   0.0000   0.0000   0.0000
     0.0000   0.0000   0.0000   0.0000   0.0000   0.0000   0.0000   0.0000
     0.0000   0.0000   0.0000   0.0000   0.0000   0.0000   0.0000   0.0000
     0.0000   0.0000   0.0000   0.0000

          k =-0.1925-0.6660 0.0000 ( 12047 PWs)   bands (ev):

   -21.1188 -14.1502  -9.2240  -7.6988  -7.5910  -6.1703  -5.0510  -4.7205
    -2.7677   0.0513   2.3732   3.0017   3.2654   4.2343   5.0874   6.0619
     6.3831   6.6752   6.9554   7.5969   7.7810   8.2998   8.7420   9.1903
     9.3496   9.5969   9.9189  10.2538  10.6588  10.8152  11.0454  11.2588
    11.7179  12.0331  12.2855  12.6352

     occupation numbers 
     1.0000   1.0000   1.0000   1.0000   1.0000   1.0000   1.0000   1.0000
     1.0000   0.0000   0.0000   0.0000   0.0000   0.0000   0.0000   0.0000
     0.0000   0.0000   0.0000   0.0000   0.0000   0.0000   0.0000   0.0000
     0.0000   0.0000   0.0000   0.0000   0.0000   0.0000   0.0000   0.0000
     0.0000   0.0000   0.0000   0.0000

          k =-0.1805-0.6868 0.0000 ( 12056 PWs)   bands (ev):

   -21.1190 -14.1549  -9.1683  -7.6804  -7.5833  -6.1696  -5.2068  -4.7695
    -2.7272   0.1621   2.2955   2.9986   3.2994   4.2611   5.4185   6.0329
     6.2902   6.6345   6.9018   7.5656   7.7453   8.3667   8.7294   8.9072
     9.3787   9.6256  10.1771  10.4059  10.5825  11.0446  11.0918  11.3030
    11.7574  12.1218  12.2755  12.5465

     occupation numbers 
     1.0000   1.0000   1.0000   1.0000   1.0000   1.0000   1.0000   1.0000
     1.0000   0.0000   0.0000   0.0000   0.0000   0.0000   0.0000   0.0000
     0.0000   0.0000   0.0000   0.0000   0.0000   0.0000   0.0000   0.0000
     0.0000   0.0000   0.0000   0.0000   0.0000   0.0000   0.0000   0.0000
     0.0000   0.0000   0.0000   0.0000

          k =-0.1685-0.7076 0.0000 ( 12038 PWs)   bands (ev):

   -21.1191 -14.1585  -9.1215  -7.7451  -7.4919  -6.1663  -5.3505  -4.7933
    -2.6965   0.2594   2.1860   3.0184   3.3531   4.2482   5.7252   6.0695
     6.2215   6.6123   6.8703   7.5466   7.7075   8.2353   8.6274   8.8161
     9.3596   9.7233  10.2964  10.4974  10.6756  11.1379  11.3564  11.4055
    11.7125  12.0112  12.1863  12.4296

     occupation numbers 
     1.0000   1.0000   1.0000   1.0000   1.0000   1.0000   1.0000   1.0000
     1.0000   0.0000   0.0000   0.0000   0.0000   0.0000   0.0000   0.0000
     0.0000   0.0000   0.0000   0.0000   0.0000   0.0000   0.0000   0.0000
     0.0000   0.0000   0.0000   0.0000   0.0000   0.0000   0.0000   0.0000
     0.0000   0.0000   0.0000   0.0000

          k =-0.1564-0.7284 0.0000 ( 12033 PWs)   bands (ev):

   -21.1191 -14.1606  -9.0898  -7.7891  -7.4271  -6.1619  -5.4519  -4.8049
    -2.6771   0.3284   2.0970   3.0397   3.3987   4.2256   5.8348   6.1799
     6.2633   6.6173   6.8595   7.5368   7.6794   7.9136   8.5890   8.8701
     9.3415   9.8069  10.1610  10.7055  10.9771  11.1776  11.3471  11.6121
    11.7070  11.8193  12.0449  12.4604

     occupation numbers 
     1.0000   1.0000   1.0000   1.0000   1.0000   1.0000   1.0000   1.0000
     1.0000   0.0000   0.0000   0.0000   0.0000   0.0000   0.0000   0.0000
     0.0000   0.0000   0.0000   0.0000   0.0000   0.0000   0.0000   0.0000
     0.0000   0.0000   0.0000   0.0000   0.0000   0.0000   0.0000   0.0000
     0.0000   0.0000   0.0000   0.0000

          k =-0.1444-0.7492 0.0000 ( 12043 PWs)   bands (ev):

   -21.1191 -14.1610  -9.0786  -7.8047  -7.4031  -6.1596  -5.4899  -4.8083
    -2.6702   0.3539   2.0626   3.0480   3.4168   4.2146   5.8457   6.1670
     6.3703   6.6407   6.8633   7.5315   7.6708   7.7496   8.5818   8.8993
     9.3361   9.8519  10.0808  10.8734  11.1174  11.2044  11.3454  11.4196
    11.6725  12.0292  12.1343  12.2067

     occupation numbers 
     1.0000   1.0000   1.0000   1.0000   1.0000   1.0000   1.0000   1.0000
     1.0000   0.0000   0.0000   0.0000   0.0000   0.0000   0.0000   0.0000
     0.0000   0.0000   0.0000   0.0000   0.0000   0.0000   0.0000   0.0000
     0.0000   0.0000   0.0000   0.0000   0.0000   0.0000   0.0000   0.0000
     0.0000   0.0000   0.0000   0.0000

          k =-0.1324-0.7701 0.0000 ( 12043 PWs)   bands (ev):

   -21.1189 -14.1598  -9.0900  -7.7893  -7.4253  -6.1613  -5.4553  -4.8044
    -2.6761   0.3287   2.0951   3.0395   3.3986   4.2245   5.8335   6.1797
     6.2538   6.6161   6.8591   7.5375   7.6804   7.9280   8.5902   8.8731
     9.3420   9.8124  10.1545  10.7163  10.9913  11.1791  11.3401  11.6144
    11.7043  11.8194  12.0445  12.4463

     occupation numbers 
     1.0000   1.0000   1.0000   1.0000   1.0000   1.0000   1.0000   1.0000
     1.0000   0.0000   0.0000   0.0000   0.0000   0.0000   0.0000   0.0000
     0.0000   0.0000   0.0000   0.0000   0.0000   0.0000   0.0000   0.0000
     0.0000   0.0000   0.0000   0.0000   0.0000   0.0000   0.0000   0.0000
     0.0000   0.0000   0.0000   0.0000

          k =-0.1203-0.7909 0.0000 ( 12036 PWs)   bands (ev):

   -21.1186 -14.1570  -9.1218  -7.7456  -7.4886  -6.1653  -5.3566  -4.7925
    -2.6946   0.2597   2.1828   3.0177   3.3525   4.2463   5.7150   6.0648
     6.2204   6.6126   6.8705   7.5479   7.7098   8.2514   8.6320   8.8214
     9.3609   9.7307  10.2927  10.5054  10.6886  11.1392  11.3628  11.4178
    11.7077  12.0004  12.1691  12.4289

     occupation numbers 
     1.0000   1.0000   1.0000   1.0000   1.0000   1.0000   1.0000   1.0000
     1.0000   0.0000   0.0000   0.0000   0.0000   0.0000   0.0000   0.0000
     0.0000   0.0000   0.0000   0.0000   0.0000   0.0000   0.0000   0.0000
     0.0000   0.0000   0.0000   0.0000   0.0000   0.0000   0.0000   0.0000
     0.0000   0.0000   0.0000   0.0000

          k =-0.1083-0.8117 0.0000 ( 12048 PWs)   bands (ev):

   -21.1182 -14.1527  -9.1688  -7.6809  -7.5791  -6.1681  -5.2145  -4.7688
    -2.7245   0.1621   2.2921   2.9966   3.2980   4.2583   5.4022   6.0343
     6.2891   6.6354   6.9025   7.5677   7.7489   8.3746   8.7340   8.9218
     9.3818   9.6338  10.1901  10.4146  10.5780  11.0485  11.1030  11.3065
    11.7544  12.1124  12.2708  12.5341

     occupation numbers 
     1.0000   1.0000   1.0000   1.0000   1.0000   1.0000   1.0000   1.0000
     1.0000   0.0000   0.0000   0.0000   0.0000   0.0000   0.0000   0.0000
     0.0000   0.0000   0.0000   0.0000   0.0000   0.0000   0.0000   0.0000
     0.0000   0.0000   0.0000   0.0000   0.0000   0.0000   0.0000   0.0000
     0.0000   0.0000   0.0000   0.0000

          k =-0.0963-0.8325 0.0000 ( 12051 PWs)   bands (ev):

   -21.1178 -14.1472  -9.2246  -7.6945  -7.5914  -6.1685  -5.0585  -4.7213
    -2.7642   0.0510   2.3711   2.9976   3.2626   4.2297   5.0721   6.0650
     6.3826   6.6764   6.9562   7.5998   7.7860   8.3049   8.7467   9.2036
     9.3563   9.6044   9.9323  10.2644  10.6607  10.8246  11.0422  11.2602
    11.7144  12.0332  12.2893  12.6412

     occupation numbers 
     1.0000   1.0000   1.0000   1.0000   1.0000   1.0000   1.0000   1.0000
     1.0000   0.0000   0.0000   0.0000   0.0000   0.0000   0.0000   0.0000
     0.0000   0.0000   0.0000   0.0000   0.0000   0.0000   0.0000   0.0000
     0.0000   0.0000   0.0000   0.0000   0.0000   0.0000   0.0000   0.0000
     0.0000   0.0000   0.0000   0.0000

          k =-0.0842-0.8533 0.0000 ( 12053 PWs)   bands (ev):

   -21.1173 -14.1409  -9.2837  -7.8046  -7.5032  -6.1666  -4.9318  -4.6216
    -2.8113  -0.0631   2.3773   3.0009   3.2998   4.1216   4.8346   6.1109
     6.4883   6.7366   7.0342   7.6428   7.8032   8.2176   8.7350   9.1759
     9.4210   9.5419   9.8204  10.1099  10.5523  10.7144  11.1522  11.2640
    11.7086  11.9859  12.1144  12.4468

     occupation numbers 
     1.0000   1.0000   1.0000   1.0000   1.0000   1.0000   1.0000   1.0000
     1.0000   0.0000   0.0000   0.0000   0.0000   0.0000   0.0000   0.0000
     0.0000   0.0000   0.0000   0.0000   0.0000   0.0000   0.0000   0.0000
     0.0000   0.0000   0.0000   0.0000   0.0000   0.0000   0.0000   0.0000
     0.0000   0.0000   0.0000   0.0000

          k =-0.0722-0.8741 0.0000 ( 12065 PWs)   bands (ev):

   -21.1168 -14.1341  -9.3416  -7.9127  -7.4112  -6.1632  -4.8597  -4.4569
    -2.8628  -0.1732   2.3205   2.9600   3.4144   3.9561   4.7198   6.1625
     6.5882   6.8201   7.1350   7.6842   7.7894   8.1792   8.6639   9.0746
     9.2867   9.4662   9.7979   9.9351  10.3855  10.7154  11.3145  11.3741
    11.7057  11.8555  12.1300  12.3382

     occupation numbers 
     1.0000   1.0000   1.0000   1.0000   1.0000   1.0000   1.0000   1.0000
     1.0000   0.0000   0.0000   0.0000   0.0000   0.0000   0.0000   0.0000
     0.0000   0.0000   0.0000   0.0000   0.0000   0.0000   0.0000   0.0000
     0.0000   0.0000   0.0000   0.0000   0.0000   0.0000   0.0000   0.0000
     0.0000   0.0000   0.0000   0.0000

          k =-0.0602-0.8949 0.0000 ( 12051 PWs)   bands (ev):

   -21.1163 -14.1273  -9.3950  -8.0116  -7.3224  -6.1591  -4.8194  -4.2620
    -2.9154  -0.2748   2.2315   2.8888   3.4366   3.9194   4.6795   6.2153
     6.6718   6.9228   7.2414   7.6811   7.8085   8.1912   8.5385   8.9474
     9.0844   9.4244   9.6760   9.7884  10.2096  10.7455  11.4175  11.4511
    11.7123  11.8442  12.3020  12.3836

     occupation numbers 
     1.0000   1.0000   1.0000   1.0000   1.0000   1.0000   1.0000   1.0000
     1.0000   0.0000   0.0000   0.0000   0.0000   0.0000   0.0000   0.0000
     0.0000   0.0000   0.0000   0.0000   0.0000   0.0000   0.0000   0.0000
     0.0000   0.0000   0.0000   0.0000   0.0000   0.0000   0.0000   0.0000
     0.0000   0.0000   0.0000   0.0000

          k =-0.0481-0.9157 0.0000 ( 12057 PWs)   bands (ev):

   -21.1158 -14.1209  -9.4413  -8.0968  -7.2421  -6.1550  -4.7920  -4.0681
    -2.9654  -0.3647   2.1301   2.8008   3.3063   4.0873   4.6731   6.2639
     6.7375   7.0292   7.3071   7.7031   7.8649   8.2039   8.4222   8.7353
     8.9507   9.3215   9.5336   9.6810  10.1106  10.6977  11.3016  11.4493
    11.8226  12.0940  12.3866  12.6878

     occupation numbers 
     1.0000   1.0000   1.0000   1.0000   1.0000   1.0000   1.0000   1.0000
     1.0000   0.0000   0.0000   0.0000   0.0000   0.0000   0.0000   0.0000
     0.0000   0.0000   0.0000   0.0000   0.0000   0.0000   0.0000   0.0000
     0.0000   0.0000   0.0000   0.0000   0.0000   0.0000   0.0000   0.0000
     0.0000   0.0000   0.0000   0.0000

          k =-0.0361-0.9366 0.0000 ( 12050 PWs)   bands (ev):

   -21.1155 -14.1155  -9.4790  -8.1656  -7.1745  -6.1515  -4.7716  -3.8944
    -3.0092  -0.4399   2.0289   2.7063   3.1780   4.2949   4.6919   6.3013
     6.7773   7.1141   7.3401   7.8062   7.9066   8.1751   8.3686   8.5394
     8.8185   9.1356   9.4342   9.6110  10.1136  10.5699  11.1042  11.5344
    11.9595  12.2581  12.5394  12.9504

     occupation numbers 
     1.0000   1.0000   1.0000   1.0000   1.0000   1.0000   1.0000   1.0000
     1.0000   0.0000   0.0000   0.0000   0.0000   0.0000   0.0000   0.0000
     0.0000   0.0000   0.0000   0.0000   0.0000   0.0000   0.0000   0.0000
     0.0000   0.0000   0.0000   0.0000   0.0000   0.0000   0.0000   0.0000
     0.0000   0.0000   0.0000   0.0000

          k =-0.0241-0.9574 0.0000 ( 12073 PWs)   bands (ev):

   -21.1152 -14.1112  -9.5067  -8.2161  -7.1233  -6.1489  -4.7567  -3.7562
    -3.0434  -0.4974   1.9403   2.6229   3.0927   4.4511   4.7506   6.3194
     6.7778   7.1726   7.4166   7.8066   8.0118   8.1414   8.3307   8.4270
     8.7186   8.9394   9.2772   9.6588  10.1610  10.4166  10.9264  11.6527
    12.0768  12.3247  12.5448  12.9983

     occupation numbers 
     1.0000   1.0000   1.0000   1.0000   1.0000   1.0000   1.0000   1.0000
     1.0000   0.0000   0.0000   0.0000   0.0000   0.0000   0.0000   0.0000
     0.0000   0.0000   0.0000   0.0000   0.0000   0.0000   0.0000   0.0000
     0.0000   0.0000   0.0000   0.0000   0.0000   0.0000   0.0000   0.0000
     0.0000   0.0000   0.0000   0.0000

          k =-0.0120-0.9782 0.0000 ( 12059 PWs)   bands (ev):

   -21.1150 -14.1086  -9.5236  -8.2468  -7.0913  -6.1474  -4.7475  -3.6669
    -3.0652  -0.5337   1.8787   2.5674   3.0464   4.5202   4.8395   6.3174
     6.7560   7.2352   7.5046   7.7370   8.0035   8.2148   8.3442   8.3860
     8.6240   8.8026   9.1466   9.7350  10.2024  10.2949  10.7942  11.7678
    12.1482  12.3224  12.4934  12.9617

     occupation numbers 
     1.0000   1.0000   1.0000   1.0000   1.0000   1.0000   1.0000   1.0000
     1.0000   0.0000   0.0000   0.0000   0.0000   0.0000   0.0000   0.0000
     0.0000   0.0000   0.0000   0.0000   0.0000   0.0000   0.0000   0.0000
     0.0000   0.0000   0.0000   0.0000   0.0000   0.0000   0.0000   0.0000
     0.0000   0.0000   0.0000   0.0000

          k =-0.5775 0.0000 0.0000 ( 12070 PWs)   bands (ev):

   -21.1149 -14.1077  -9.5293  -8.2572  -7.0804  -6.1468  -4.7444  -3.6359
    -3.0726  -0.5462   1.8565   2.5482   3.0318   4.5363   4.8826   6.3120
     6.7450   7.2718   7.5292   7.7292   7.9346   8.3096   8.3320   8.4501
     8.4982   8.7693   9.0956   9.7754  10.1882  10.2750  10.7419  11.8237
    12.1616  12.2995  12.4922  12.9307

     occupation numbers 
     1.0000   1.0000   1.0000   1.0000   1.0000   1.0000   1.0000   1.0000
     1.0000   0.0000   0.0000   0.0000   0.0000   0.0000   0.0000   0.0000
     0.0000   0.0000   0.0000   0.0000   0.0000   0.0000   0.0000   0.0000
     0.0000   0.0000   0.0000   0.0000   0.0000   0.0000   0.0000   0.0000
     0.0000   0.0000   0.0000   0.0000

     the Fermi energy is    -1.2068 ev
     (compare with:    -2.1366 eV, computed in scf)

     Writing all to output data dir ./work/Al2SO.save/

     init_run     :      0.65s CPU      0.67s WALL (       1 calls)
     electrons    :   1615.50s CPU   1697.19s WALL (       1 calls)

     Called by init_run:
     wfcinit      :      0.00s CPU      0.00s WALL (       1 calls)
     wfcinit:atom :      0.19s CPU      0.22s WALL (    1154 calls)
     wfcinit:wfcr :     23.43s CPU     25.52s WALL (    1154 calls)
     potinit      :      0.06s CPU      0.06s WALL (       1 calls)
     hinit0       :      0.44s CPU      0.44s WALL (       1 calls)

     Called by electrons:
     c_bands      :   1615.42s CPU   1697.09s WALL (       1 calls)
     v_of_rho     :      0.00s CPU      0.01s WALL (       1 calls)
     v_h          :      0.00s CPU      0.00s WALL (       1 calls)
     v_xc         :      0.00s CPU      0.01s WALL (       1 calls)
     newd         :      0.06s CPU      0.07s WALL (       1 calls)
     PAW_pot      :      0.05s CPU      0.05s WALL (       1 calls)

     Called by c_bands:
     init_us_2    :      0.37s CPU      0.43s WALL (    1154 calls)
     init_us_2:cp :      0.37s CPU      0.43s WALL (    1154 calls)
     cegterg      :   1588.09s CPU   1667.29s WALL (    4493 calls)

     Called by sum_band:

     Called by *egterg:
     cdiaghg      :    126.12s CPU    127.70s WALL (   81178 calls)
     cegterg:over :    239.88s CPU    242.89s WALL (   80024 calls)
     cegterg:upda :    114.33s CPU    114.70s WALL (   80024 calls)
     cegterg:last :    336.33s CPU    336.72s WALL (   47542 calls)
     h_psi        :    611.36s CPU    685.91s WALL (   85671 calls)
     s_psi        :    104.63s CPU    105.78s WALL (   85671 calls)
     g_psi        :      5.78s CPU      5.81s WALL (   80024 calls)

     Called by h_psi:
     h_psi:calbec :    117.62s CPU    133.07s WALL (   85671 calls)
     vloc_psi     :    386.04s CPU    441.43s WALL (   85671 calls)
     add_vuspsi   :    104.10s CPU    107.79s WALL (   85671 calls)

     General routines
     calbec       :    117.51s CPU    132.98s WALL (   85671 calls)
     fft          :      0.25s CPU      0.25s WALL (      12 calls)
     fftw         :    343.68s CPU    393.25s WALL ( 3359140 calls)
     davcio       :      0.67s CPU      0.83s WALL (    2308 calls)

     Parallel routines

     PAW routines
     PAW_pot      :      0.05s CPU      0.05s WALL (       1 calls)

     PWSCF        :  27m 0.59s CPU  28m26.14s WALL


   This run was terminated on:   2:29:35  16Feb2023            

=------------------------------------------------------------------------------=
   JOB DONE.
=------------------------------------------------------------------------------=
