
     Program PWSCF v.7.0 starts on 17Jun2023 at 14: 4: 0 

     This program is part of the open-source Quantum ESPRESSO suite
     for quantum simulation of materials; please cite
         "P. Giannozzi et al., J. Phys.:Condens. Matter 21 395502 (2009);
         "P. Giannozzi et al., J. Phys.:Condens. Matter 29 465901 (2017);
         "P. Giannozzi et al., J. Chem. Phys. 152 154105 (2020);
          URL http://www.quantum-espresso.org", 
     in publications or presentations arising from this work. More details at
     http://www.quantum-espresso.org/quote

     Parallel version (MPI), running on    16 processors

     MPI processes distributed on     1 nodes
     R & G space division:  proc/nbgrp/npool/nimage =      16
     5223 MiB available memory on the printing compute node when the environment starts
 
     Waiting for input...
     Reading input from standard input

     Current dimensions of program PWSCF are:
     Max number of different atomic species (ntypx) = 10
     Max number of k-points (npk) =  40000
     Max angular momentum in pseudopotentials (lmaxx) =  4
     Message from routine volume:
     axis vectors are left-handed

     Atomic positions and unit cell read from directory:
     ./work/Al2S2.save/
     Atomic positions from file used, from input discarded
 
     Message from routine volume:
     axis vectors are left-handed
     file Al.pbe-n-kjpaw_psl.1.0.0.UPF: wavefunction(s)  3S 3P renormalized
     file S.pbe-n-kjpaw_psl.1.0.0.UPF: wavefunction(s)  3S 3P renormalized

     IMPORTANT: XC functional enforced from input :
     Exchange-correlation= VDW-DF2-B86R
                           (   1   4  26   0   2   0   0)
     Any further DFT definition will be discarded
     Please, verify this is what you really want

     Message from routine setup:
     using ibrav=0 with symmetry is DISCOURAGED, use correct ibrav instead

     Subspace diagonalization in iterative solution of the eigenvalue problem:
     a serial algorithm will be used

 
     Parallelization info
     --------------------
     sticks:   dense  smooth     PW     G-vecs:    dense   smooth      PW
     Min          39      39     11                 4603     4603     731
     Max          40      40     12                 4609     4609     750
     Sum         625     625    187                73689    73689   11939
 
     Using Slab Decomposition
 


     bravais-lattice index     =            0
     lattice parameter (alat)  =       6.1344  a.u.
     unit-cell volume          =    1175.3558 (a.u.)^3
     number of atoms/cell      =            8
     number of atomic types    =            2
     number of electrons       =        36.00
     number of Kohn-Sham states=           70
     kinetic-energy cutoff     =      60.0000  Ry
     charge density cutoff     =     240.0000  Ry
     Exchange-correlation= VDW-DF2-B86R
                           (   1   4  26   0   2   0   0)

     celldm(1)=   6.134387  celldm(2)=   0.000000  celldm(3)=   0.000000
     celldm(4)=   0.000000  celldm(5)=   0.000000  celldm(6)=   0.000000

     crystal axes: (cart. coord. in units of alat)
               a(1) = (   0.865734   0.500504   0.000000 )  
               a(2) = (   0.865734  -0.500504   0.000000 )  
               a(3) = (   0.000000   0.000000   5.875350 )  

     reciprocal axes: (cart. coord. in units 2 pi/alat)
               b(1) = (  0.577544  0.998993  0.000000 )  
               b(2) = (  0.577544 -0.998993  0.000000 )  
               b(3) = (  0.000000  0.000000  0.170203 )  


     PseudoPot. # 1 for Al read from file:
     /home/mainadmin/research/danu/pseudo/Al.pbe-n-kjpaw_psl.1.0.0.UPF
     MD5 check sum: 502b6b27b9c6270cab5dd1084b96fa6d
     Pseudo is Projector augmented-wave + core cor, Zval =  3.0
     Generated using &quot;atomic&quot; code by A. Dal Corso  v.6.3
     Shape of augmentation charge: PSQ
     Using radial grid of 1135 points,  6 beta functions with: 
                l(1) =   0
                l(2) =   0
                l(3) =   1
                l(4) =   1
                l(5) =   2
                l(6) =   2
     Q(r) pseudized with 0 coefficients 


     PseudoPot. # 2 for S  read from file:
     /home/mainadmin/research/danu/pseudo/S.pbe-n-kjpaw_psl.1.0.0.UPF
     MD5 check sum: fb45dfebcf3e72a4e1bd4a866ec2e262
     Pseudo is Projector augmented-wave + core cor, Zval =  6.0
     Generated using &quot;atomic&quot; code by A. Dal Corso  v.6.3
     Shape of augmentation charge: PSQ
     Using radial grid of 1151 points,  6 beta functions with: 
                l(1) =   0
                l(2) =   0
                l(3) =   1
                l(4) =   1
                l(5) =   2
                l(6) =   2
     Q(r) pseudized with 0 coefficients 


     atomic species   valence    mass     pseudopotential
        Al             3.00    26.98100     Al( 1.00)
        S              6.00    32.06500     S ( 1.00)

      2 Sym. Ops. (no inversion) found



   Cartesian axes

     site n.     atom                  positions (alat units)
         1           S   tau(   1) = (   1.1543123   0.0000000   0.0000000  )
         2           Al  tau(   2) = (   0.5771561   0.0000000   0.3774354  )
         3           Al  tau(   3) = (   0.5771561   0.0000000   1.1798169  )
         4           S   tau(   4) = (   1.1543123   0.0000000   1.5570966  )
         5           S   tau(   5) = (   1.1543123   0.0000000   2.9370339  )
         6           Al  tau(   6) = (   0.5771561   0.0000000   3.3141800  )
         7           Al  tau(   7) = (   0.5771561   0.0000000   4.1177659  )
         8           S   tau(   8) = (   1.1543123   0.0000000   4.4954130  )

     number of k points=    91
                       cart. coord. in units 2pi/alat
        k(    1) = (   0.0000000   0.0000000   0.0000000), wk =   0.0219780
        k(    2) = (   0.0192515   0.0110848   0.0000000), wk =   0.0219780
        k(    3) = (   0.0385030   0.0221697   0.0000000), wk =   0.0219780
        k(    4) = (   0.0577544   0.0332545   0.0000000), wk =   0.0219780
        k(    5) = (   0.0770059   0.0443393   0.0000000), wk =   0.0219780
        k(    6) = (   0.0962574   0.0554241   0.0000000), wk =   0.0219780
        k(    7) = (   0.1155089   0.0665090   0.0000000), wk =   0.0219780
        k(    8) = (   0.1347604   0.0775938   0.0000000), wk =   0.0219780
        k(    9) = (   0.1540119   0.0886786   0.0000000), wk =   0.0219780
        k(   10) = (   0.1732633   0.0997634   0.0000000), wk =   0.0219780
        k(   11) = (   0.1925148   0.1108483   0.0000000), wk =   0.0219780
        k(   12) = (   0.2117663   0.1219331   0.0000000), wk =   0.0219780
        k(   13) = (   0.2310178   0.1330179   0.0000000), wk =   0.0219780
        k(   14) = (   0.2502693   0.1441027   0.0000000), wk =   0.0219780
        k(   15) = (   0.2695208   0.1551876   0.0000000), wk =   0.0219780
        k(   16) = (   0.2887722   0.1662724   0.0000000), wk =   0.0219780
        k(   17) = (   0.3080237   0.1773572   0.0000000), wk =   0.0219780
        k(   18) = (   0.3272752   0.1884420   0.0000000), wk =   0.0219780
        k(   19) = (   0.3465267   0.1995269   0.0000000), wk =   0.0219780
        k(   20) = (   0.3657782   0.2106117   0.0000000), wk =   0.0219780
        k(   21) = (   0.3850296   0.2216965   0.0000000), wk =   0.0219780
        k(   22) = (   0.4042811   0.2327813   0.0000000), wk =   0.0219780
        k(   23) = (   0.4235326   0.2438662   0.0000000), wk =   0.0219780
        k(   24) = (   0.4427841   0.2549510   0.0000000), wk =   0.0219780
        k(   25) = (   0.4620356   0.2660358   0.0000000), wk =   0.0219780
        k(   26) = (   0.4812871   0.2771206   0.0000000), wk =   0.0219780
        k(   27) = (   0.5005385   0.2882055   0.0000000), wk =   0.0219780
        k(   28) = (   0.5197900   0.2992903   0.0000000), wk =   0.0219780
        k(   29) = (   0.5390415   0.3103751   0.0000000), wk =   0.0219780
        k(   30) = (   0.5582930   0.3214599   0.0000000), wk =   0.0219780
        k(   31) = (   0.5775445   0.3325448   0.0000000), wk =   0.0219780
        k(   32) = (   0.5775445   0.3214599   0.0000000), wk =   0.0219780
        k(   33) = (   0.5775445   0.3103751   0.0000000), wk =   0.0219780
        k(   34) = (   0.5775445   0.2992903   0.0000000), wk =   0.0219780
        k(   35) = (   0.5775445   0.2882055   0.0000000), wk =   0.0219780
        k(   36) = (   0.5775445   0.2771206   0.0000000), wk =   0.0219780
        k(   37) = (   0.5775445   0.2660358   0.0000000), wk =   0.0219780
        k(   38) = (   0.5775445   0.2549510   0.0000000), wk =   0.0219780
        k(   39) = (   0.5775445   0.2438662   0.0000000), wk =   0.0219780
        k(   40) = (   0.5775445   0.2327813   0.0000000), wk =   0.0219780
        k(   41) = (   0.5775445   0.2216965   0.0000000), wk =   0.0219780
        k(   42) = (   0.5775445   0.2106117   0.0000000), wk =   0.0219780
        k(   43) = (   0.5775445   0.1995269   0.0000000), wk =   0.0219780
        k(   44) = (   0.5775445   0.1884420   0.0000000), wk =   0.0219780
        k(   45) = (   0.5775445   0.1773572   0.0000000), wk =   0.0219780
        k(   46) = (   0.5775445   0.1662724   0.0000000), wk =   0.0219780
        k(   47) = (   0.5775445   0.1551876   0.0000000), wk =   0.0219780
        k(   48) = (   0.5775445   0.1441027   0.0000000), wk =   0.0219780
        k(   49) = (   0.5775445   0.1330179   0.0000000), wk =   0.0219780
        k(   50) = (   0.5775445   0.1219331   0.0000000), wk =   0.0219780
        k(   51) = (   0.5775445   0.1108483   0.0000000), wk =   0.0219780
        k(   52) = (   0.5775445   0.0997634   0.0000000), wk =   0.0219780
        k(   53) = (   0.5775445   0.0886786   0.0000000), wk =   0.0219780
        k(   54) = (   0.5775445   0.0775938   0.0000000), wk =   0.0219780
        k(   55) = (   0.5775445   0.0665090   0.0000000), wk =   0.0219780
        k(   56) = (   0.5775445   0.0554241   0.0000000), wk =   0.0219780
        k(   57) = (   0.5775445   0.0443393   0.0000000), wk =   0.0219780
        k(   58) = (   0.5775445   0.0332545   0.0000000), wk =   0.0219780
        k(   59) = (   0.5775445   0.0221697   0.0000000), wk =   0.0219780
        k(   60) = (   0.5775445   0.0110848   0.0000000), wk =   0.0219780
        k(   61) = (   0.5775445   0.0000000   0.0000000), wk =   0.0219780
        k(   62) = (   0.5582930   0.0000000   0.0000000), wk =   0.0219780
        k(   63) = (   0.5390415   0.0000000   0.0000000), wk =   0.0219780
        k(   64) = (   0.5197900   0.0000000   0.0000000), wk =   0.0219780
        k(   65) = (   0.5005385   0.0000000   0.0000000), wk =   0.0219780
        k(   66) = (   0.4812871   0.0000000   0.0000000), wk =   0.0219780
        k(   67) = (   0.4620356   0.0000000   0.0000000), wk =   0.0219780
        k(   68) = (   0.4427841   0.0000000   0.0000000), wk =   0.0219780
        k(   69) = (   0.4235326   0.0000000   0.0000000), wk =   0.0219780
        k(   70) = (   0.4042811   0.0000000   0.0000000), wk =   0.0219780
        k(   71) = (   0.3850296   0.0000000   0.0000000), wk =   0.0219780
        k(   72) = (   0.3657782   0.0000000   0.0000000), wk =   0.0219780
        k(   73) = (   0.3465267   0.0000000   0.0000000), wk =   0.0219780
        k(   74) = (   0.3272752   0.0000000   0.0000000), wk =   0.0219780
        k(   75) = (   0.3080237   0.0000000   0.0000000), wk =   0.0219780
        k(   76) = (   0.2887722   0.0000000   0.0000000), wk =   0.0219780
        k(   77) = (   0.2695208   0.0000000   0.0000000), wk =   0.0219780
        k(   78) = (   0.2502693   0.0000000   0.0000000), wk =   0.0219780
        k(   79) = (   0.2310178   0.0000000   0.0000000), wk =   0.0219780
        k(   80) = (   0.2117663   0.0000000   0.0000000), wk =   0.0219780
        k(   81) = (   0.1925148   0.0000000   0.0000000), wk =   0.0219780
        k(   82) = (   0.1732633   0.0000000   0.0000000), wk =   0.0219780
        k(   83) = (   0.1540119   0.0000000   0.0000000), wk =   0.0219780
        k(   84) = (   0.1347604   0.0000000   0.0000000), wk =   0.0219780
        k(   85) = (   0.1155089   0.0000000   0.0000000), wk =   0.0219780
        k(   86) = (   0.0962574   0.0000000   0.0000000), wk =   0.0219780
        k(   87) = (   0.0770059   0.0000000   0.0000000), wk =   0.0219780
        k(   88) = (   0.0577544   0.0000000   0.0000000), wk =   0.0219780
        k(   89) = (   0.0385030   0.0000000   0.0000000), wk =   0.0219780
        k(   90) = (   0.0192515   0.0000000   0.0000000), wk =   0.0219780
        k(   91) = (   0.0000000   0.0000000   0.0000000), wk =   0.0219780

     Dense  grid:    73689 G-vectors     FFT dimensions: (  32,  32, 180)

     Estimated max dynamical RAM per process >      19.34 MB

     Estimated total dynamical RAM >     309.39 MB

     The potential is recalculated from file :
     ./work/Al2S2.save/charge-density



     %%%%%%%%%%%%%%%%%%%%%%%%%%%%%%%%%%%%%%%%%%%%%%%%%%%%%%%%%%%%%%%%%%%%%%%%
     %                                                                      %
     % You are using vdW-DF, which was implemented by the Thonhauser group. %
     % Please cite the following two papers that made this development      %
     % possible and the two reviews that describe the various versions:     %
     %                                                                      %
     %   T. Thonhauser et al., PRL 115, 136402 (2015).                      %
     %   T. Thonhauser et al., PRB 76, 125112 (2007).                       %
     %   K. Berland et al., Rep. Prog. Phys. 78, 066501 (2015).             %
     %   D.C. Langreth et al., J. Phys.: Condens. Matter 21, 084203 (2009). %
     %                                                                      %
     %                                                                      %
     % If you are calculating the stress with vdW-DF, please also cite:     %
     %                                                                      %
     %   R. Sabatini et al., J. Phys.: Condens. Matter 24, 424209 (2012).   %
     %                                                                      %
     %%%%%%%%%%%%%%%%%%%%%%%%%%%%%%%%%%%%%%%%%%%%%%%%%%%%%%%%%%%%%%%%%%%%%%%%


     Starting wfcs are   32 randomized atomic wfcs +   38 random wfcs
     Checking if some PAW data can be deallocated... 

     Band Structure Calculation
     Davidson diagonalization with overlap
     c_bands:  1 eigenvalues not converged

     ethr =  2.78E-11,  avg # of iterations = 68.1

     total cpu time spent up to now is      291.7 secs

     End of band structure calculation

          k = 0.0000 0.0000 0.0000 (  9215 PWs)   bands (ev):

   -10.0817 -10.0680  -9.9804  -9.9657  -2.5594  -2.4862  -0.5753  -0.3330
     2.3267   2.7325   3.7767   3.7824   3.7868   3.7925   3.8060   3.8120
     3.8160   3.8220   7.1244   8.2180   9.6971  10.2266  10.2474  10.3327
    10.4807  11.1013  11.1092  11.1236  11.1316  11.4229  11.6424  11.6535
    11.6654  11.6764  13.6319  14.0925  14.1130  14.1318  14.1523  14.5148
    15.5069  15.5240  15.6131  15.6301  15.9468  15.9647  16.0005  16.0184
    16.6243  16.9196  18.1844  18.2886  18.3516  18.5970  18.7123  19.2553
    19.6529  19.6723  19.7821  19.8012  20.7259  20.7435  20.7458  21.0604
    21.0793  21.2703  21.9507  22.4442  23.9739  24.0249

          k = 0.0193 0.0111 0.0000 (  9229 PWs)   bands (ev):

   -10.0768 -10.0631  -9.9756  -9.9609  -2.5537  -2.4806  -0.5705  -0.3284
     2.3295   2.7346   3.7514   3.7573   3.7726   3.7782   3.7784   3.7849
     3.8020   3.8080   7.1335   8.2250   9.6979  10.2542  10.2759  10.3580
    10.5063  11.0868  11.0901  11.1211  11.1284  11.4169  11.6403  11.6508
    11.6692  11.6801  13.6445  14.0359  14.0778  14.0788  14.1180  14.5158
    15.4899  15.5051  15.5409  15.6067  15.9721  15.9793  16.0031  16.0365
    16.7145  16.9921  18.2229  18.3249  18.3675  18.6177  18.7585  19.2952
    19.6474  19.6807  19.7825  19.8098  20.6482  20.7225  20.7763  20.9872
    21.0610  21.3645  21.9664  22.5515  23.7978  23.9949

          k = 0.0385 0.0222 0.0000 (  9223 PWs)   bands (ev):

   -10.0621 -10.0484  -9.9613  -9.9465  -2.5367  -2.4638  -0.5560  -0.3145
     2.3376   2.7403   3.6592   3.6659   3.6787   3.6872   3.7490   3.7548
     3.7791   3.7852   7.1601   8.2446   9.6986  10.3324  10.3557  10.4294
    10.5788  10.9908  11.0161  11.1525  11.1599  11.3967  11.6001  11.6083
    11.7210  11.7294  13.6634  13.8663  13.9191  14.0065  14.0566  14.5048
    15.3334  15.4280  15.4638  15.5713  15.8927  16.0545  16.1115  16.1232
    16.9397  17.1649  18.3346  18.4116  18.4326  18.6781  18.8881  19.4014
    19.6032  19.7367  19.7543  19.8676  20.4713  20.6961  20.7987  20.8693
    21.0471  21.5589  22.0113  22.8111  23.5231  23.8803

          k = 0.0578 0.0333 0.0000 (  9239 PWs)   bands (ev):

   -10.0377 -10.0240  -9.9374  -9.9227  -2.5085  -2.4358  -0.5319  -0.2913
     2.3497   2.7477   3.5125   3.5204   3.5231   3.5327   3.7106   3.7164
     3.7419   3.7480   7.2019   8.2739   9.6949  10.4468  10.4690  10.5333
    10.6861  10.8443  10.9042  11.2094  11.2147  11.3577  11.5375  11.5397
    11.8202  11.8213  13.5702  13.6508  13.8055  13.8841  13.9774  14.4806
    15.0678  15.3315  15.4005  15.5121  15.8189  16.1444  16.2043  16.3161
    17.2431  17.3719  18.4720  18.5076  18.6066  18.7711  19.0749  19.5295
    19.5485  19.7144  19.8188  19.9644  20.3005  20.6231  20.6621  21.0091
    21.0322  21.7869  22.0788  23.1383  23.2112  23.6821

          k = 0.0770 0.0443 0.0000 (  9239 PWs)   bands (ev):

   -10.0037  -9.9900  -9.9041  -9.8894  -2.4692  -2.3967  -0.4984  -0.2593
     2.3630   2.7509   3.3126   3.3265   3.3310   3.3455   3.6564   3.6624
     3.6894   3.6957   7.2563   8.3095   9.6808  10.5536  10.5655  10.6495
    10.7070  10.7810  10.8087  11.2831  11.2894  11.2955  11.4579  11.4686
    11.9582  11.9717  13.3372  13.4267  13.7227  13.7404  13.9534  14.4545
    14.7843  15.2186  15.3124  15.4281  15.7686  16.2302  16.2973  16.5590
    17.5764  17.5925  18.5293  18.7175  18.8337  18.8745  19.2767  19.5132
    19.6116  19.6811  19.9103  20.0934  20.1779  20.5562  20.6484  21.0381
    21.1755  22.0359  22.1591  22.9030  23.4174  23.4888

          k = 0.0963 0.0554 0.0000 (  9251 PWs)   bands (ev):

    -9.9602  -9.9466  -9.8615  -9.8469  -2.4190  -2.3469  -0.4558  -0.2186
     2.3703   2.7307   3.0714   3.0891   3.1215   3.1587   3.5861   3.5923
     3.6214   3.6279   7.3214   8.3481   9.6488  10.4057  10.5565  10.7534
    10.7733  10.7766  10.9201  11.2096  11.3438  11.3769  11.3815  11.4095
    12.1398  12.1785  13.1026  13.2139  13.5613  13.6283  13.9968  14.4300
    14.5080  15.1021  15.2029  15.3201  15.7448  16.2994  16.3804  16.8295
    17.7640  17.9690  18.5617  18.9095  18.9329  19.0778  19.4528  19.5510
    19.6544  19.6907  19.9962  20.0966  20.2450  20.5893  20.7235  21.1279
    21.3296  22.2396  22.3029  22.6479  23.1138  23.7623

          k = 0.1155 0.0665 0.0000 (  9253 PWs)   bands (ev):

    -9.9074  -9.8938  -9.8099  -9.7953  -2.3581  -2.2865  -0.4044  -0.1698
     2.3515   2.6325   2.8038   2.8247   2.9196   3.0299   3.4993   3.5058
     3.5377   3.5444   7.3957   8.3877   9.5891  10.1845  10.4200  10.8180
    10.8809  10.8912  10.9820  11.1075  11.3455  11.3496  11.3780  11.4464
    12.3513  12.4359  12.9055  13.0074  13.4646  13.5528  14.0515  14.2634
    14.4074  14.9817  15.0896  15.1912  15.7446  16.3438  16.4466  17.1041
    17.9311  18.3568  18.5653  18.8925  19.0056  19.2493  19.6072  19.7321
    19.7692  19.8287  19.9980  20.0648  20.4053  20.5983  20.9520  21.3719
    21.3968  22.3040  22.5077  22.5807  22.8173  23.6316

          k = 0.1348 0.0776 0.0000 (  9249 PWs)   bands (ev):

    -9.8456  -9.8321  -9.7495  -9.7350  -2.2869  -2.2160  -0.3449  -0.1134
     2.2603   2.4264   2.5191   2.5433   2.7790   2.9964   3.3958   3.4028
     3.4382   3.4451   7.4783   8.4264   9.4936   9.9500  10.2733  10.8165
    10.9639  10.9843  10.9904  11.0012  11.2728  11.3841  11.3927  11.4734
    12.5516  12.7293  12.7318  12.7897  13.4883  13.5902  14.0870  14.1034
    14.3928  14.8356  15.0135  15.0490  15.7626  16.3576  16.4906  17.3559
    18.0791  18.5673  18.6459  18.8922  19.0139  19.3012  19.7733  19.8628
    19.9691  20.0040  20.1317  20.1358  20.5553  20.5645  21.3076  21.3254
    21.7374  22.3369  22.3655  22.7295  22.8498  23.5430

          k = 0.1540 0.0887 0.0000 (  9255 PWs)   bands (ev):

    -9.7751  -9.7617  -9.6806  -9.6662  -2.2060  -2.1358  -0.2778  -0.0507
     2.0688   2.1661   2.2246   2.2525   2.7341   3.0105   3.2757   3.2837
     3.3228   3.3301   7.5683   8.4627   9.3601   9.7101  10.1237  10.7445
    10.8980  10.9025  10.9562  11.0898  11.2199  11.4548  11.4665  11.4727
    12.5522  12.5645  12.6695  13.0339  13.6099  13.7498  14.0299  14.1665
    14.4113  14.6616  14.9123  15.0007  15.7935  16.3374  16.5100  17.5556
    18.2106  18.5767  18.6083  18.9861  19.2531  19.3027  19.7109  19.9671
    20.0491  20.1741  20.4189  20.5285  20.5533  20.6758  21.1763  21.7324
    22.1236  22.1694  22.3395  22.9296  23.0586  23.5131

          k = 0.1733 0.0998 0.0000 (  9259 PWs)   bands (ev):

    -9.6963  -9.6829  -9.6036  -9.5893  -2.1159  -2.0468  -0.2045   0.0169
     1.8187   1.8873   1.9269   1.9593   2.7484   3.0391   3.1396   3.1520
     3.1921   3.1997   7.6650   8.4951   9.1941   9.4675   9.9603  10.6235
    10.7400  10.8165  10.8215  11.1741  11.2976  11.4655  11.5483  11.5802
    12.3459  12.3674  12.6555  13.3117  13.7257  13.9101  14.0835  14.3243
    14.4794  14.5281  14.8377  15.0647  15.8316  16.2827  16.5077  17.6889
    18.3279  18.4723  18.7016  18.9401  19.2944  19.5753  19.6820  19.9759
    20.1832  20.2452  20.6933  20.7051  20.7231  20.9757  21.0357  21.9855
    22.1766  22.3384  22.6393  23.1202  23.2154  23.5674

          k = 0.1925 0.1108 0.0000 (  9265 PWs)   bands (ev):

    -9.6096  -9.5963  -9.5190  -9.5048  -2.0176  -1.9499  -0.1268   0.0865
     1.5481   1.6045   1.6319   1.6707   2.7871   2.9843   2.9891   3.0466
     3.0546   3.0961   7.7668   8.5217   9.0041   9.2229   9.7734  10.4654
    10.4763  10.7433  10.7496  11.2377  11.4095  11.5067  11.6605  11.6961
    12.1471  12.1903  12.5463  13.5080  13.7408  13.9450  14.0883  14.3201
    14.6547  14.7986  14.9478  15.2234  15.8708  16.1970  16.4939  17.7708
    18.3980  18.4317  18.8043  18.8722  19.2873  19.4997  19.8633  20.1061
    20.2220  20.4111  20.6547  20.7186  20.9557  21.0880  21.4104  22.0857
    22.3677  22.5578  23.0663  23.1313  23.5176  23.6626

          k = 0.2118 0.1219 0.0000 (  9275 PWs)   bands (ev):

    -9.5156  -9.5023  -9.4273  -9.4131  -1.9125  -1.8466  -0.0481   0.1524
     1.2745   1.3256   1.3462   1.3955   2.7997   2.8227   2.8618   2.8873
     2.8958   3.1361   7.8719   8.5403   8.7974   8.9764   9.5622  10.1754
    10.3172  10.6836  10.6875  11.2902  11.5321  11.5921  11.7858  11.8150
    11.9774  12.0343  12.4057  13.5564  13.6670  13.9014  13.9636  14.2373
    15.0713  15.1824  15.2616  15.4808  15.9076  16.0872  16.4863  17.8256
    18.3592  18.5219  18.7731  18.8509  19.2836  19.5340  19.7538  20.1410
    20.3896  20.5742  20.6311  20.6580  21.1976  21.2453  21.7966  22.4250
    22.4530  22.6535  23.1016  23.6296  23.6331  23.7959

          k = 0.2310 0.1330 0.0000 (  9267 PWs)   bands (ev):

    -9.4148  -9.4017  -9.3290  -9.3150  -1.8026  -1.7392   0.0240   0.2024
     1.0077   1.0572   1.0796   1.1483   2.6342   2.6436   2.7153   2.7244
     2.9051   3.1815   7.9769   8.5486   8.5793   8.7279   9.3333   9.8849
    10.1569  10.6361  10.6386  11.3460  11.6560  11.6979  11.8517  11.9129
    11.9218  11.9250  12.2821  13.4488  13.5443  13.7766  13.8137  14.2515
    15.4789  15.6009  15.6734  15.8110  15.9696  15.9810  16.5063  17.8667
    18.3527  18.5977  18.6448  18.8440  19.2829  19.6670  19.6704  20.0922
    20.1030  20.5696  20.8119  21.0059  21.2846  21.5358  22.0364  22.5234
    22.6220  22.8893  23.1682  23.6718  23.9803  24.1311

          k = 0.2503 0.1441 0.0000 (  9255 PWs)   bands (ev):

    -9.3081  -9.2950  -9.2251  -9.2112  -1.6909  -1.6307   0.0716   0.2090
     0.7550   0.8054   0.8520   0.9586   2.4432   2.4520   2.5322   2.5419
     2.9641   3.2265   8.0765   8.3532   8.4774   8.5445   9.0953   9.6015
    10.0064  10.5961  10.6060  11.4032  11.7237  11.7284  11.8688  11.8835
    11.9771  12.0674  12.2423  13.2609  13.3967  13.5702  13.6933  14.3121
    15.6740  15.7168  16.1154  16.1639  16.1866  16.2176  16.5795  17.8981
    18.3740  18.5132  18.6622  18.8376  19.2847  19.5708  19.8426  19.8519
    20.0896  20.4813  20.9142  21.3668  21.4218  21.8194  22.0972  22.4023
    22.8348  23.1655  23.3933  23.8913  23.9336  24.5476

          k = 0.2695 0.1552 0.0000 (  9251 PWs)   bands (ev):

    -9.1962  -9.1833  -9.1162  -9.1025  -1.5819  -1.5263   0.0547   0.1329
     0.5240   0.5774   0.7050   0.8673   2.2412   2.2501   2.3396   2.3500
     3.0233   3.2687   8.1217   8.1628   8.2256   8.5262   8.8567   9.3302
     9.8785  10.5648  10.5839  11.4420  11.6960  11.7046  11.9375  12.0004
    12.0054  12.2219  12.3288  13.0489  13.2406  13.3637  13.5485  14.3851
    15.5578  15.6522  16.4749  16.5297  16.5436  16.6558  16.8198  17.9225
    18.4203  18.4236  18.7285  18.8625  19.2880  19.3618  19.7823  20.0237
    20.1082  20.4126  20.9201  21.4453  21.8103  22.0584  22.0922  22.3396
    23.0197  23.1467  23.6028  24.0378  24.2692  24.7018

          k = 0.2888 0.1663 0.0000 (  9261 PWs)   bands (ev):

    -9.0802  -9.0674  -9.0035  -8.9899  -1.4830  -1.4337  -0.0610  -0.0252
     0.3240   0.3829   0.6740   0.8746   2.0308   2.0401   2.1393   2.1503
     3.0794   3.3059   7.8869   7.9735   8.2251   8.4932   8.6248   9.0747
     9.7879  10.5393  10.5675  11.4500  11.6670  11.7410  11.8838  12.1552
    12.1610  12.3837  12.4649  12.8391  13.0922  13.1713  13.3878  14.4601
    15.3621  15.5621  16.6678  16.6858  16.9068  17.1337  17.2872  17.9453
    18.3952  18.4910  18.8295  18.9247  19.1735  19.2925  19.8062  20.1624
    20.1832  20.3736  20.8725  21.5139  21.9841  22.1604  22.2998  22.3515
    23.1614  23.1804  23.3631  24.5587  24.7206  24.8531

          k = 0.3080 0.1774 0.0000 (  9241 PWs)   bands (ev):

    -8.9612  -8.9485  -8.8879  -8.8745  -1.4047  -1.3636  -0.2416  -0.2217
     0.1674   0.2342   0.7259   0.9379   1.8141   1.8237   1.9330   1.9449
     3.1296   3.3359   7.6504   7.7222   8.2525   8.4059   8.4464   8.8379
     9.7490  10.5154  10.5497  11.4460  11.6653  11.8043  11.8497  12.3211
    12.3274  12.5384  12.6077  12.6609  12.9708  13.0121  13.2203  14.5316
    15.1496  15.4393  16.7088  16.8242  17.1485  17.5706  17.7921  17.9780
    18.3140  18.5883  18.9935  19.0174  19.2150  19.3167  19.8611  20.2547
    20.2852  20.3665  20.8647  21.5630  21.9104  22.2364  22.4603  22.5934
    23.0963  23.2302  23.3269  24.9068  25.1059  25.1705

          k = 0.3273 0.1884 0.0000 (  9229 PWs)   bands (ev):

    -8.8405  -8.8279  -8.7709  -8.7577  -1.3601  -1.3286  -0.4404  -0.4256
     0.0687   0.1451   0.8145   1.0262   1.5930   1.6031   1.7228   1.7358
     3.1716   3.3569   7.4135   7.4731   8.2056   8.2399   8.3884   8.6223
     9.7696  10.4864  10.5219  11.4422  11.6921  11.8397  11.8617  12.4637
    12.4891  12.5024  12.6994  12.7486  12.8989  12.9468  13.0588  14.5937
    14.9285  15.2943  16.6415  16.9707  17.2434  17.8614  18.0890  18.1025
    18.2718  18.7224  19.0970  19.1251  19.5033  19.5359  19.9302  20.3325
    20.3877  20.3892  20.9603  21.5809  21.8565  22.1461  22.6909  22.8172
    22.8394  23.3314  23.4558  24.8551  25.1475  25.2878

          k = 0.3465 0.1995 0.0000 (  9227 PWs)   bands (ev):

    -8.7195  -8.7071  -8.6538  -8.6408  -1.3590  -1.3363  -0.6353  -0.6220
     0.0386   0.1242   0.9177   1.1237   1.3695   1.3799   1.5107   1.5263
     3.2031   3.3672   7.1774   7.2277   8.0284   8.1926   8.3233   8.4301
     9.8456  10.4443  10.4752  11.4309  11.7447  11.8521  11.9028  12.3431
    12.6298  12.6715  12.6831  12.8948  12.9294  12.9392  13.0517  14.6390
    14.7069  15.1331  16.5293  17.1258  17.2230  17.8411  17.9244  18.3143
    18.6523  18.9405  19.0546  19.2255  19.8952  19.9634  20.0402  20.4196
    20.4436  20.5659  21.1233  21.5568  21.8311  22.0546  22.5984  22.8221
    23.0257  23.4204  23.5530  24.6571  24.9080  25.3459

          k = 0.3658 0.2106 0.0000 (  9213 PWs)   bands (ev):

    -8.6000  -8.5878  -8.5383  -8.5255  -1.3989  -1.3824  -0.8166  -0.8034
     0.0756   0.1682   1.0232   1.1454   1.1561   1.2051   1.3010   1.3363
     3.2224   3.3659   6.9435   6.9874   7.8772   8.1237   8.2560   8.2626
     9.9602  10.3804  10.4073  11.3958  11.8184  11.8859  11.9432  12.2703
    12.6290  12.6344  12.8589  12.9640  12.9815  13.1170  13.2218  14.4946
    14.6591  14.9607  16.4145  17.1358  17.2865  17.5773  17.9213  18.4557
    18.8830  18.9531  19.2649  19.3122  20.0611  20.2648  20.5255  20.6092
    20.6121  20.7923  21.2845  21.4943  21.8358  22.0080  22.3668  22.8291
    23.2106  23.4410  23.5964  24.4179  24.6680  25.2369

          k = 0.3850 0.2217 0.0000 (  9216 PWs)   bands (ev):

    -8.4837  -8.4717  -8.4261  -8.4135  -1.4657  -1.4526  -0.9788  -0.9655
     0.1657   0.2628   0.9223   0.9335   1.0515   1.0786   1.1698   1.3547
     3.2286   3.3525   6.7136   6.7535   7.7535   8.0474   8.1199   8.1922
    10.0668  10.2893  10.3495  11.3291  11.9034  11.9418  12.0058  12.2506
    12.5349  12.6347  12.9937  13.1156  13.1502  13.3045  13.4080  14.3066
    14.6487  14.7818  16.3172  17.0169  17.3320  17.4482  17.8811  18.4839
    18.8183  19.0685  19.4037  19.5664  20.1154  20.3664  20.8641  20.9684
    21.0545  21.0615  21.3511  21.4683  21.8695  22.0879  22.1394  22.7060
    23.3602  23.3663  23.5657  24.2016  24.5587  25.0526

          k = 0.4043 0.2328 0.0000 (  9220 PWs)   bands (ev):

    -8.3726  -8.3607  -8.3190  -8.3066  -1.5422  -1.5305  -1.1186  -1.1050
     0.2913   0.3911   0.7022   0.7140   0.8600   0.8737   1.2575   1.4505
     3.2221   3.3277   6.4897   6.5278   7.6567   7.9753   8.0015   8.1369
    10.0363  10.1696  10.4248  11.2407  11.9776  12.0217  12.0967  12.2801
    12.4673  12.6758  13.0842  13.3146  13.3450  13.4844  13.6001  14.1674
    14.6023  14.6111  16.2382  16.8881  17.1228  17.6039  17.8011  18.4398
    18.6609  19.2522  19.4988  19.7891  20.1401  20.3351  21.0278  21.0553
    21.2982  21.3388  21.5872  21.5998  21.9434  22.0892  22.2974  22.5121
    23.2738  23.4717  23.4991  24.0460  24.5860  25.0173

          k = 0.4235 0.2439 0.0000 (  9208 PWs)   bands (ev):

    -8.2685  -8.2568  -8.2189  -8.2067  -1.6143  -1.6032  -1.2332  -1.2193
     0.4315   0.4874   0.4924   0.5510   0.6545   0.6677   1.3570   1.5450
     3.2043   3.2935   6.2743   6.3121   7.5848   7.9055   7.9160   8.0953
     9.8931  10.0252  10.6089  11.1473  12.0041  12.1253  12.2065  12.3498
    12.4830  12.7497  13.1229  13.5282  13.5415  13.6421  13.7931  14.1104
    14.4306  14.5635  16.1604  16.7633  16.9693  17.6830  17.7424  18.3643
    18.4886  19.4362  19.5613  19.9278  20.1095  20.2068  20.8785  20.9579
    21.3967  21.4000  21.5012  21.9301  22.2331  22.4026  22.4833  22.5532
    23.3683  23.3763  23.6258  23.9620  24.6835  25.0983

          k = 0.4428 0.2550 0.0000 (  9194 PWs)   bands (ev):

    -8.1734  -8.1619  -8.1276  -8.1156  -1.6729  -1.6618  -1.3207  -1.3065
     0.2728   0.2847   0.4522   0.4658   0.5967   0.7023   1.4499   1.6324
     3.1782   3.2526   6.0700   6.1085   7.5338   7.8291   7.8759   8.0715
     9.7153   9.8625  10.8260  11.0625  11.9785  12.2493  12.3156  12.4487
    12.5905  12.8484  13.1063  13.7171  13.7464  13.7533  13.9820  14.1518
    14.2869  14.5388  16.0647  16.6522  16.8859  17.5378  17.8455  18.2757
    18.3075  19.5179  19.6040  19.9746  19.9767  19.9951  20.7027  20.7895
    21.1425  21.2901  21.7203  22.0578  22.4781  22.5799  22.7373  23.1429
    23.3177  23.7248  23.7556  23.9413  24.8041  25.2553

          k = 0.4620 0.2660 0.0000 (  9182 PWs)   bands (ev):

    -8.0892  -8.0778  -8.0467  -8.0350  -1.7118  -1.7006  -1.3797  -1.3653
     0.0702   0.0823   0.2561   0.2700   0.7521   0.8611   1.5329   1.7103
     3.1479   3.2091   5.8797   5.9196   7.4992   7.7690   7.8595   8.0691
     9.5238   9.6878  10.9961  11.0569  11.9377  12.3858  12.3872  12.5652
    12.7534  12.9661  13.0881  13.7865  13.8076  13.9674  14.1607  14.2350
    14.2683  14.5697  15.9536  16.5619  16.8632  17.3806  17.8838  18.1226
    18.1788  19.2918  19.6602  19.6957  19.6975  20.0542  20.5537  20.7392
    20.9500  21.1303  21.9225  22.1872  22.6290  22.6707  23.1281  23.4269
    23.7394  23.8687  23.9783  24.1910  24.9259  25.4654

          k = 0.4813 0.2771 0.0000 (  9178 PWs)   bands (ev):

    -8.0173  -8.0060  -7.9778  -7.9661  -1.7279  -1.7166  -1.4097  -1.3951
    -0.1233  -0.1109   0.0682   0.0825   0.8991   1.0118   1.6040   1.7769
     3.1184   3.1679   5.7066   5.7482   7.4759   7.7218   7.8701   8.0907
     9.3271   9.5070  10.9546  11.2920  11.9058  12.3733  12.5270  12.6872
    12.9437  13.1013  13.1432  13.7563  13.7575  14.1754  14.3200  14.3310
    14.4248  14.6481  15.8534  16.4972  16.8709  17.2262  17.8206  17.9379
    18.0754  18.9131  19.2932  19.3139  19.6769  20.1888  20.4370  20.8222
    20.8254  21.0206  22.0968  22.3332  22.7748  22.7986  23.2450  23.8009
    23.9260  24.0089  24.3695  24.6498  25.0611  25.6709

          k = 0.5005 0.2882 0.0000 (  9194 PWs)   bands (ev):

    -7.9587  -7.9475  -7.9216  -7.9101  -1.7206  -1.7091  -1.4115  -1.3968
    -0.3044  -0.2918  -0.1087  -0.0941   1.0290   1.1457   1.6619   1.8311
     3.0946   3.1339   5.5549   5.5981   7.4592   7.6845   7.9096   8.1380
     9.1303   9.3244  10.9411  11.5217  11.8912  12.2819  12.6571  12.8005
    13.1368  13.2564  13.2861  13.6669  13.7028  14.3557  14.4503  14.4785
    14.5968  14.7278  15.7986  16.4591  16.8735  17.0879  17.6394  17.7581
    17.9682  18.4731  18.9078  18.9179  19.6405  20.3431  20.3595  20.7417
    20.9675  20.9800  22.2361  22.4911  22.9031  22.9670  23.3111  23.9087
    24.0987  24.1615  24.8731  24.9366  25.3557  25.7958

          k = 0.5198 0.2993 0.0000 (  9198 PWs)   bands (ev):

    -7.9140  -7.9029  -7.8788  -7.8674  -1.6919  -1.6804  -1.3882  -1.3735
    -0.4686  -0.4557  -0.2706  -0.2556   1.1342   1.2549   1.7061   1.8724
     3.0802   3.1111   5.4290   5.4737   7.4459   7.6549   7.9788   8.2114
     8.9370   9.1439  10.9553  11.7323  11.8944  12.1563  12.7635  12.8910
    13.2669  13.4349  13.4845  13.6567  13.6626  14.4852  14.5328  14.6040
    14.7648  14.7685  15.8159  16.4437  16.8360  16.9783  17.3754  17.5913
    17.8576  18.0476  18.5449  18.5768  19.6424  20.2745  20.5193  20.6770
    20.9586  21.1701  22.3343  22.6526  23.0178  23.1678  23.3660  23.8262
    24.1973  24.4211  24.8292  25.4462  25.7436  25.9313

          k = 0.5390 0.3104 0.0000 (  9210 PWs)   bands (ev):

    -7.8832  -7.8722  -7.8493  -7.8380  -1.6490  -1.6375  -1.3468  -1.3323
    -0.6079  -0.5947  -0.4101  -0.3947   1.2094   1.3333   1.7366   1.9008
     3.0759   3.1006   5.3341   5.3799   7.4342   7.6321   8.0765   8.3092
     8.7507   8.9695  10.9908  11.9041  11.9108  12.0311  12.8383  12.9527
    13.2615  13.6360  13.6529  13.7136  13.8175  14.5355  14.5466  14.6576
    14.7649  14.9064  15.9000  16.4411  16.7342  16.9075  17.1055  17.4529
    17.6525  17.7935  18.2789  18.3078  19.6693  20.2357  20.6218  20.6415
    20.9868  21.3648  22.3869  22.8065  23.1240  23.3871  23.3970  23.6952
    24.2955  24.5743  24.6385  25.8310  26.0069  26.0624

          k = 0.5583 0.3215 0.0000 (  9216 PWs)   bands (ev):

    -7.8656  -7.8546  -7.8324  -7.8212  -1.6060  -1.5947  -1.3024  -1.2882
    -0.7081  -0.6945  -0.5125  -0.4968   1.2526   1.3785   1.7539   1.9170
     3.0783   3.0994   5.2752   5.3214   7.4248   7.6167   8.1969   8.4239
     8.5777   8.8094  11.0323  11.9306  11.9340  12.0140  12.8805  12.9939
    13.2150  13.6657  13.8448  13.9569  14.0669  14.4770  14.4798  14.5878
    14.7415  14.9981  16.0073  16.4416  16.5924  16.8761  16.9132  17.3633
    17.4200  17.7130  18.1325  18.1383  19.6950  20.2243  20.5779  20.7185
    21.0299  21.5309  22.3959  22.9345  23.2260  23.3954  23.5408  23.5965
    24.3751  24.3869  24.6477  26.0343  26.1159  26.1562

          k = 0.5775 0.3325 0.0000 (  9224 PWs)   bands (ev):

    -7.8601  -7.8491  -7.8272  -7.8159  -1.5860  -1.5748  -1.2808  -1.2667
    -0.7468  -0.7332  -0.5532  -0.5373   1.2659   1.3924   1.7594   1.9221
     3.0808   3.1008   5.2554   5.3017   7.4206   7.6107   8.2875   8.4699
     8.5024   8.7161  11.0531  11.8949  11.9404  12.0495  12.8936  13.0146
    13.1940  13.6763  13.9791  14.1455  14.3417  14.3551  14.3748  14.3929
    14.7275  15.0279  16.0607  16.4417  16.5158  16.8472  16.8695  17.3323
    17.3405  17.6820  18.0810  18.0886  19.7042  20.2258  20.5588  20.7513
    21.0486  21.6086  22.3869  22.9948  23.2982  23.3814  23.4370  23.7050
    24.2463  24.4100  24.6689  26.0846  26.1533  26.1882

          k = 0.5775 0.3215 0.0000 (  9206 PWs)   bands (ev):

    -7.8613  -7.8503  -7.8283  -7.8170  -1.5922  -1.5809  -1.2877  -1.2735
    -0.7360  -0.7224  -0.5417  -0.5258   1.2630   1.3894   1.7582   1.9210
     3.0798   3.1001   5.2601   5.3065   7.4221   7.6125   8.2552   8.4761
     8.5064   8.7459  11.0465  11.9058  11.9370  12.0417  12.8905  13.0050
    13.1994  13.6715  13.9209  14.0531  14.1786  14.4301  14.4379  14.5240
    14.7332  15.0216  16.0498  16.4416  16.5363  16.8630  16.8708  17.3411
    17.3582  17.6921  18.0953  18.0996  19.7025  20.2241  20.5645  20.7361
    21.0464  21.5806  22.3929  22.9735  23.2745  23.3895  23.4736  23.6782
    24.2866  24.3975  24.6639  26.0779  26.1349  26.1817

          k = 0.5775 0.3104 0.0000 (  9222 PWs)   bands (ev):

    -7.8649  -7.8539  -7.8317  -7.8205  -1.6098  -1.5985  -1.3070  -1.2927
    -0.7049  -0.6914  -0.5086  -0.4929   1.2548   1.3809   1.7546   1.9177
     3.0762   3.0971   5.2740   5.3204   7.4270   7.6183   8.1900   8.4185
     8.5837   8.8138  11.0270  11.9270  11.9374  12.0205  12.8818  12.9767
    13.2142  13.6566  13.7936  13.8930  13.9951  14.5342  14.5482  14.6770
    14.7540  15.0048  16.0328  16.4405  16.5816  16.8744  16.9000  17.3635
    17.3982  17.7244  18.1271  18.1337  19.6967  20.2165  20.5833  20.6918
    21.0434  21.5076  22.4059  22.9176  23.2464  23.4092  23.5397  23.6317
    24.3635  24.3725  24.6487  26.0624  26.1011  26.1661

          k = 0.5775 0.2993 0.0000 (  9214 PWs)   bands (ev):

    -7.8707  -7.8597  -7.8373  -7.8260  -1.6378  -1.6263  -1.3371  -1.3226
    -0.6549  -0.6416  -0.4561  -0.4405   1.2421   1.3676   1.7489   1.9123
     3.0694   3.0913   5.2959   5.3427   7.4361   7.6287   8.1173   8.3513
     8.6759   8.8973  10.9959  11.9099  11.9868  11.9887  12.8678  12.9254
    13.2311  13.6297  13.6303  13.7068  13.8056  14.6531  14.6687  14.7946
    14.8334  14.9835  16.0220  16.4380  16.6396  16.8791  16.9517  17.3993
    17.4512  17.7822  18.1700  18.1930  19.6879  20.2027  20.6144  20.6148
    21.0439  21.3960  22.4180  22.8335  23.2325  23.4352  23.5932  23.6192
    24.3074  24.4790  24.6229  26.0447  26.0560  26.1451

          k = 0.5775 0.2882 0.0000 (  9214 PWs)   bands (ev):

    -7.8784  -7.8674  -7.8448  -7.8335  -1.6738  -1.6622  -1.3752  -1.3606
    -0.5887  -0.5755  -0.3871  -0.3718   1.2258   1.3506   1.7413   1.9052
     3.0592   3.0824   5.3248   5.3722   7.4507   7.6446   8.0437   8.2820
     8.7758   8.9886  10.9557  11.8859  11.9483  12.0495  12.8475  12.8499
    13.2237  13.4470  13.5077  13.5926  13.6415  14.7691  14.7814  14.8575
    14.9751  14.9928  16.0219  16.4341  16.7041  16.8839  17.0118  17.4482
    17.5107  17.8657  18.2275  18.2698  19.6776  20.1834  20.5070  20.6562
    21.0478  21.2566  22.4191  22.7283  23.2360  23.4619  23.5768  23.7072
    24.2310  24.5860  24.5933  25.9994  26.0281  26.1211

          k = 0.5775 0.2771 0.0000 (  9214 PWs)   bands (ev):

    -7.8880  -7.8770  -7.8540  -7.8427  -1.7155  -1.7038  -1.4187  -1.4040
    -0.5090  -0.4960  -0.3046  -0.2895   1.2066   1.3307   1.7321   1.8965
     3.0456   3.0701   5.3589   5.4075   7.4716   7.6668   7.9712   8.2130
     8.8808   9.0842  10.9088  11.8554  11.9014  12.1173  12.7490  12.8204
    13.1311  13.2564  13.3064  13.5464  13.5673  14.8045  14.9126  14.9424
    15.0241  15.1549  16.0314  16.4298  16.7732  16.8891  17.0749  17.5096
    17.5726  17.9721  18.2986  18.3608  19.6668  20.1606  20.3768  20.7045
    21.0524  21.1003  22.4017  22.6076  23.2557  23.4856  23.5858  23.8013
    24.1383  24.5375  24.7090  25.9306  26.0016  26.0122

          k = 0.5775 0.2660 0.0000 (  9208 PWs)   bands (ev):

    -7.8990  -7.8880  -7.8646  -7.8533  -1.7609  -1.7491  -1.4655  -1.4506
    -0.4183  -0.4055  -0.2111  -0.1963   1.1854   1.3086   1.7213   1.8864
     3.0287   3.0547   5.3966   5.4470   7.5001   7.6961   7.9004   8.1452
     8.9891   9.1823  10.8574  11.8191  11.8489  12.1771  12.6284  12.7758
    12.9477  13.0729  13.1176  13.4950  13.5914  14.7780  15.0434  15.0465
    15.1261  15.3192  16.0466  16.4272  16.8477  16.8963  17.1356  17.5819
    17.6338  18.0972  18.3821  18.4629  19.6567  20.1357  20.2326  20.7559
    20.9371  21.0554  22.3626  22.4760  23.2887  23.5044  23.6181  23.8978
    24.0347  24.4770  24.8224  25.7711  25.8489  25.9941

          k = 0.5775 0.2550 0.0000 (  9192 PWs)   bands (ev):

    -7.9114  -7.9003  -7.8765  -7.8652  -1.8085  -1.7965  -1.5140  -1.4989
    -0.3186  -0.3060  -0.1085  -0.0940   1.1630   1.2853   1.7094   1.8752
     3.0089   3.0364   5.4358   5.4888   7.5373   7.7336   7.8317   8.0791
     9.0991   9.2809  10.8034  11.7771  11.7911  12.2033  12.4928  12.6855
    12.7273  12.9301  12.9680  13.4412  13.6619  14.7297  15.1657  15.1702
    15.2401  15.4853  16.0633  16.4292  16.9079  16.9296  17.1889  17.6633
    17.6908  18.2366  18.4767  18.5736  19.6477  20.0837  20.1102  20.7762
    20.8070  21.0552  22.3026  22.3377  23.3316  23.5174  23.6677  23.9265
    23.9908  24.4044  24.9307  25.5464  25.7525  25.9650

          k = 0.5775 0.2439 0.0000 (  9202 PWs)   bands (ev):

    -7.9248  -7.9137  -7.8895  -7.8781  -1.8570  -1.8449  -1.5630  -1.5478
    -0.2119  -0.1993   0.0015   0.0157   1.1401   1.2614   1.6965   1.8631
     2.9865   3.0156   5.4748   5.5312   7.5840   7.7653   7.7799   8.0151
     9.2089   9.3781  10.7477  11.7274  11.7289  12.1568  12.3497  12.4959
    12.5295  12.8536  12.8974  13.3870  13.7543  14.6724  15.2891  15.2952
    15.3515  15.6526  16.0787  16.4400  16.9270  17.0209  17.2300  17.7390
    17.7516  18.3870  18.5803  18.6905  19.6374  19.9415  20.0851  20.6259
    20.8544  21.0511  22.1963  22.2242  23.3805  23.5244  23.7270  23.8199
    24.0693  24.3194  25.0310  25.3420  25.6397  25.8495

          k = 0.5775 0.2328 0.0000 (  9198 PWs)   bands (ev):

    -7.9390  -7.9279  -7.9032  -7.8918  -1.9056  -1.8934  -1.6118  -1.5965
    -0.0998  -0.0871   0.1178   0.1317   1.1177   1.2379   1.6829   1.8502
     2.9622   2.9928   5.5118   5.5726   7.6412   7.7014   7.8357   7.9532
     9.3161   9.4714  10.6911  11.6567  11.6722  12.0257  12.2073  12.2669
    12.3423  12.8118  12.9188  13.3335  13.8600  14.6101  15.3957  15.4283
    15.4547  15.8202  16.0932  16.4641  16.9567  17.1233  17.2546  17.7737
    17.8441  18.5459  18.6908  18.8117  19.6135  19.8266  20.0615  20.4940
    20.8946  21.0429  22.0559  22.1301  23.4314  23.5256  23.7209  23.7887
    24.1133  24.2223  25.1166  25.1786  25.5128  25.6421

          k = 0.5775 0.2217 0.0000 (  9202 PWs)   bands (ev):

    -7.9539  -7.9428  -7.9176  -7.9062  -1.9536  -1.9414  -1.6597  -1.6443
     0.0160   0.0291   0.2393   0.2530   1.0967   1.2155   1.6688   1.8369
     2.9364   2.9684   5.5455   5.6115   7.6401   7.7091   7.8937   7.9015
     9.4174   9.5577  10.6339  11.5775  11.6001  11.8419  12.0510  12.0745
    12.1524  12.7818  13.0008  13.2813  13.9752  14.5442  15.4853  15.5461
    15.5554  15.9865  16.1127  16.5064  16.9994  17.2371  17.2595  17.7897
    17.9383  18.7111  18.8058  18.9352  19.5490  19.7731  20.0406  20.3877
    20.9248  21.0308  21.9203  22.0229  23.4802  23.5213  23.6345  23.8463
    24.0942  24.1133  25.0851  25.1596  25.3977  25.4263

          k = 0.5775 0.2106 0.0000 (  9194 PWs)   bands (ev):

    -7.9693  -7.9581  -7.9325  -7.9210  -2.0005  -1.9882  -1.7065  -1.6910
     0.1337   0.1476   0.3650   0.3785   1.0785   1.1955   1.6545   1.8232
     2.9096   2.9429   5.5747   5.6468   7.5813   7.7881   7.8365   7.9774
     9.5083   9.6328  10.5760  11.4904  11.4966  11.6357  11.8676  11.9583
    11.9718  12.7569  13.1142  13.2308  14.0972  14.4754  15.5546  15.6236
    15.6592  16.1486  16.1524  16.5704  17.0566  17.2436  17.3619  17.7837
    18.0314  18.8809  18.9225  19.0595  19.4537  19.7763  20.0235  20.3124
    20.9426  21.0151  21.7939  21.9052  23.5118  23.5223  23.5649  23.8942
    23.9930  23.9963  25.0770  25.0806  25.2095  25.3732

          k = 0.5775 0.1995 0.0000 (  9204 PWs)   bands (ev):

    -7.9849  -7.9737  -7.9476  -7.9361  -2.0461  -2.0337  -1.7516  -1.7361
     0.2509   0.2663   0.4941   0.5074   1.0649   1.1793   1.6402   1.8095
     2.8821   2.9167   5.5988   5.6775   7.5252   7.7817   7.8777   8.0632
     9.5825   9.6914  10.5169  11.3441  11.4003  11.4233  11.7363  11.8086
    11.8628  12.7353  13.1821  13.2439  14.2240  14.4042  15.6027  15.6863
    15.7191  16.2305  16.3027  16.6568  17.1269  17.2112  17.4966  17.7560
    18.1203  19.0368  19.0546  19.1833  19.3589  19.8081  20.0117  20.2708
    20.9467  20.9966  21.6812  21.7793  23.4970  23.5142  23.5521  23.8370
    23.8631  23.9277  24.9145  24.9946  25.1371  25.3998

          k = 0.5775 0.1884 0.0000 (  9204 PWs)   bands (ev):

    -8.0006  -7.9894  -7.9628  -7.9512  -2.0900  -2.0775  -1.7950  -1.7794
     0.3641   0.3826   0.6256   0.6388   1.0588   1.1692   1.6261   1.7960
     2.8545   2.8902   5.6173   5.7031   7.4717   7.7293   7.9774   8.1582
     9.6322   9.7270  10.4549  11.1528  11.2130  11.3188  11.6490  11.6705
    11.7873  12.7168  13.1356  13.3823  14.3311  14.3535  15.6317  15.7297
    15.7348  16.3534  16.4364  16.7629  17.1745  17.2041  17.6399  17.7132
    18.2016  19.1463  19.2293  19.2759  19.3055  19.8566  20.0070  20.2618
    20.9379  20.9761  21.5866  21.6483  23.4749  23.4822  23.5542  23.6554
    23.7267  23.9436  24.7245  24.7840  25.2343  25.4111

          k = 0.5775 0.1774 0.0000 (  9190 PWs)   bands (ev):

    -8.0162  -8.0049  -7.9779  -7.9663  -2.1319  -2.1194  -1.8365  -1.8208
     0.4681   0.4924   0.7587   0.7719   1.0649   1.1685   1.6127   1.7830
     2.8270   2.8638   5.6303   5.7234   7.4209   7.6794   8.0859   8.2615
     9.6491   9.7331  10.3872  10.9457  11.0134  11.2574  11.5643  11.5849
    11.7293  12.7014  13.0912  13.5243  14.2571  14.4831  15.6454  15.7039
    15.7711  16.5074  16.5275  16.8840  17.1604  17.2700  17.6756  17.7904
    18.2724  19.2067  19.2452  19.4048  19.4257  19.9169  20.0110  20.2804
    20.9189  20.9549  21.5146  21.5165  23.4100  23.4359  23.4647  23.5850
    23.5959  23.9397  24.5269  24.5817  25.3343  25.4009

          k = 0.5775 0.1663 0.0000 (  9198 PWs)   bands (ev):

    -8.0316  -8.0203  -7.9928  -7.9812  -2.1719  -2.1593  -1.8758  -1.8600
     0.5558   0.5901   0.8920   0.9056   1.0897   1.1823   1.6004   1.7707
     2.8000   2.8377   5.6377   5.7382   7.3728   7.6320   8.2019   8.3716
     9.6273   9.7052  10.3085  10.7371  10.8325  11.2253  11.4953  11.5311
    11.6875  12.6896  13.0490  13.6639  14.1851  14.6097  15.6481  15.6549
    15.7978  16.5484  16.6794  17.0141  17.2025  17.2863  17.6845  17.9464
    18.3301  19.1504  19.3292  19.5439  19.5791  19.9844  20.0246  20.3172
    20.8952  20.9349  21.3904  21.4688  23.1965  23.3432  23.4532  23.5083
    23.5569  23.9141  24.3295  24.3952  25.3561  25.3806

          k = 0.5775 0.1552 0.0000 (  9200 PWs)   bands (ev):

    -8.0466  -8.0353  -8.0074  -7.9957  -2.2096  -2.1970  -1.9130  -1.8971
     0.6201   0.6688   1.0241   1.0388   1.1396   1.2169   1.5900   1.7596
     2.7737   2.8124   5.6401   5.7478   7.3275   7.5870   8.3233   8.4863
     9.5665   9.6428  10.2115  10.5342  10.6803  11.2227  11.4636  11.4829
    11.6629  12.6819  13.0093  13.7876  14.1257  14.7288  15.5900  15.6431
    15.8181  16.5031  16.8618  17.1473  17.2336  17.3054  17.7629  18.1066
    18.3743  19.1054  19.3949  19.6611  19.7497  20.0456  20.0536  20.3591
    20.8742  20.9188  21.2813  21.4509  22.9793  23.1948  23.4315  23.4680
    23.5102  23.8614  24.1422  24.2377  25.2859  25.3255

          k = 0.5775 0.1441 0.0000 (  9200 PWs)   bands (ev):

    -8.0611  -8.0498  -8.0215  -8.0098  -2.2450  -2.2324  -1.9478  -1.9319
     0.6593   0.7236   1.1527   1.1698   1.2157   1.2763   1.5832   1.7504
     2.7485   2.7879   5.6378   5.7523   7.2848   7.5444   8.4473   8.6026
     9.4727   9.5504  10.0927  10.3422  10.5636  11.2401  11.4379  11.4647
    11.6604  12.6789  12.9720  13.8523  14.1197  14.8337  15.5134  15.6332
    15.8355  16.4255  17.0505  17.1407  17.2762  17.4447  17.8849  18.2694
    18.4078  19.0699  19.4419  19.7783  19.9109  20.0683  20.1169  20.3897
    20.8655  20.9105  21.2065  21.4610  22.7659  23.0255  23.3766  23.4420
    23.4430  23.7644  23.9867  24.1281  25.1976  25.1996

          k = 0.5775 0.1330 0.0000 (  9192 PWs)   bands (ev):

    -8.0750  -8.0636  -8.0349  -8.0232  -2.2781  -2.2654  -1.9803  -1.9643
     0.6781   0.7556   1.2729   1.2965   1.3124   1.3587   1.5837   1.7446
     2.7244   2.7646   5.6313   5.7523   7.2448   7.5043   8.5703   8.7160
     9.3551   9.4356   9.9588  10.1666  10.4794  11.2618  11.3952  11.4905
    11.6873  12.6813  12.9373  13.8204  14.2017  14.9152  15.4272  15.6203
    15.8534  16.3475  17.0331  17.2430  17.3921  17.6005  18.0273  18.4329
    18.4377  19.0433  19.4727  19.8966  20.0447  20.0835  20.1660  20.4046
    20.8783  20.9150  21.1840  21.4968  22.5605  22.8469  23.2722  23.3570
    23.4212  23.6116  23.8793  24.0768  25.0690  25.1085

          k = 0.5775 0.1219 0.0000 (  9192 PWs)   bands (ev):

    -8.0881  -8.0768  -8.0477  -8.0360  -2.3087  -2.2960  -2.0103  -1.9943
     0.6837   0.7707   1.3735   1.4145   1.4213   1.4572   1.6023   1.7454
     2.7018   2.7426   5.6211   5.7482   7.2075   7.4665   8.6862   8.8191
     9.2230   9.3065   9.8247  10.0150  10.4188  11.2751  11.3540  11.5325
    11.7478  12.6899  12.9051  13.7416  14.3188  14.9619  15.3330  15.6057
    15.8753  16.2929  16.9230  17.4374  17.4841  17.7619  18.1792  18.4757
    18.5952  19.0255  19.4919  20.0163  20.0848  20.1004  20.1926  20.4483
    20.9173  20.9359  21.2170  21.5538  22.3671  22.6630  23.1246  23.2567
    23.4032  23.4303  23.7978  24.0693  24.9424  25.0182

          k = 0.5775 0.1108 0.0000 (  9186 PWs)   bands (ev):

    -8.1005  -8.0891  -8.0597  -8.0479  -2.3368  -2.3241  -2.0379  -2.0218
     0.6819   0.7750   1.4346   1.5156   1.5353   1.5643   1.6574   1.7607
     2.6806   2.7221   5.6077   5.7403   7.1729   7.4311   8.7852   8.9005
     9.0840   9.1706   9.7078   9.8989  10.3739  11.2770  11.3137  11.5831
    11.8384  12.7051  12.8756  13.6467  14.4375  14.9642  15.2321  15.5904
    15.9050  16.2777  16.8169  17.5412  17.6324  17.9220  18.3335  18.5355
    18.7532  19.0177  19.5039  20.0496  20.0724  20.1375  20.1921  20.5618
    20.9713  20.9804  21.2893  21.6260  22.1909  22.4770  22.9524  23.1466
    23.2445  23.3884  23.7240  24.0744  24.8333  24.9254

          k = 0.5775 0.0998 0.0000 (  9196 PWs)   bands (ev):

    -8.1119  -8.1005  -8.0708  -8.0590  -2.3623  -2.3496  -2.0629  -2.0468
     0.6760   0.7732   1.4570   1.5832   1.6505   1.6743   1.7468   1.8051
     2.6611   2.7031   5.5919   5.7294   7.1410   7.3980   8.8517   8.9434
     8.9455   9.0337   9.6273   9.8337  10.3405  11.2705  11.2738  11.6362
    11.9503  12.7273  12.8488  13.5438  14.5465  14.9214  15.1256  15.5752
    15.9457  16.3070  16.7186  17.5590  17.8258  18.0746  18.4837  18.6256
    18.9030  19.0226  19.5131  19.9476  20.0525  20.1655  20.2587  20.7094
    21.0116  21.0592  21.3787  21.7042  22.0399  22.2941  22.7705  23.0316
    23.0658  23.3775  23.6537  24.0595  24.7606  24.8290

          k = 0.5775 0.0887 0.0000 (  9188 PWs)   bands (ev):

    -8.1223  -8.1109  -8.0809  -8.0691  -2.3852  -2.3725  -2.0854  -2.0693
     0.6683   0.7681   1.4617   1.6134   1.7631   1.7831   1.8485   1.8812
     2.6434   2.6859   5.5740   5.7160   7.1118   7.3673   8.8082   8.8695
     8.9005   8.9412   9.6010   9.8295  10.3167  11.2338  11.2596  11.6873
    12.0753  12.7561  12.8247  13.4365  14.6406  14.8429  15.0149  15.5606
    16.0001  16.3739  16.6303  17.5415  18.0160  18.2128  18.6204  18.7456
    19.0390  19.0447  19.5231  19.8381  20.0337  20.1178  20.3784  20.8660
    21.0387  21.1436  21.4649  21.7679  21.9261  22.1305  22.5900  22.9032
    22.9161  23.3717  23.5881  24.0038  24.7288  24.7328

          k = 0.5775 0.0776 0.0000 (  9192 PWs)   bands (ev):

    -8.1316  -8.1202  -8.0900  -8.0782  -2.4056  -2.3928  -2.1052  -2.0891
     0.6600   0.7616   1.4601   1.6231   1.8702   1.8873   1.9494   1.9708
     2.6275   2.6705   5.5550   5.7008   7.0854   7.3390   8.6799   8.7752
     8.8381   8.8966   9.6284   9.8791  10.3021  11.1932  11.2471  11.7334
    12.2072  12.7906  12.8034  13.3273  14.7172  14.7429  14.9014  15.5470
    16.0688  16.4661  16.5536  17.4994  18.2002  18.3285  18.7284  18.8889
    19.0896  19.1544  19.5370  19.7499  20.0257  20.0558  20.4942  21.0232
    21.0312  21.2217  21.5280  21.7499  21.8638  22.0495  22.4200  22.7670
    22.8042  23.3726  23.5313  23.9119  24.6266  24.6963

          k = 0.5775 0.0665 0.0000 (  9186 PWs)   bands (ev):

    -8.1399  -8.1284  -8.0980  -8.0862  -2.4232  -2.4104  -2.1225  -2.1064
     0.6518   0.7547   1.4565   1.6248   1.9695   1.9841   2.0439   2.0597
     2.6136   2.6570   5.5354   5.6846   7.0618   7.3133   8.5625   8.6607
     8.7768   8.8296   9.6883   9.9629  10.2974  11.1514  11.2347  11.7730
    12.3408  12.7849  12.8289  13.2192  14.6341  14.7761  14.7871  15.5346
    16.1495  16.4899  16.5718  17.4435  18.3751  18.4153  18.7866  19.0480
    19.1613  19.2431  19.5545  19.7109  19.9869  20.0378  20.6033  20.9770
    21.1766  21.2805  21.5496  21.6135  21.8581  22.0841  22.2713  22.6666
    22.6996  23.3820  23.4900  23.8038  24.5239  24.5832

          k = 0.5775 0.0554 0.0000 (  9200 PWs)   bands (ev):

    -8.1469  -8.1354  -8.1048  -8.0930  -2.4382  -2.4254  -2.1372  -2.1210
     0.6443   0.7481   1.4523   1.6235   2.0585   2.0711   2.1286   2.1414
     2.6016   2.6454   5.5164   5.6684   7.0412   7.2904   8.4585   8.5598
     8.7060   8.7569   9.7570  10.0629  10.3035  11.1082  11.2232  11.8054
    12.4715  12.7694  12.8687  13.1156  14.5270  14.6748  14.8188  15.5238
    16.2351  16.4419  16.6809  17.3829  18.4722  18.5360  18.7821  19.2161
    19.2560  19.3063  19.5706  19.7384  19.9204  20.0758  20.7019  20.8821
    21.3049  21.3204  21.4390  21.5226  21.8961  22.1516  22.1567  22.6031
    22.6053  23.4015  23.4736  23.6976  24.4242  24.4517

          k = 0.5775 0.0443 0.0000 (  9202 PWs)   bands (ev):

    -8.1527  -8.1412  -8.1105  -8.0986  -2.4505  -2.4376  -2.1492  -2.1330
     0.6378   0.7423   1.4484   1.6213   2.1351   2.1461   2.2013   2.2121
     2.5917   2.6358   5.4988   5.6531   7.0238   7.2706   8.3702   8.4744
     8.6384   8.6890   9.8190  10.1667  10.3206  11.0636  11.2133  11.8307
    12.5939  12.7569  12.9069  13.0205  14.4291  14.5681  14.8481  15.5146
    16.3045  16.4240  16.7852  17.3247  18.5046  18.6766  18.7277  19.3535
    19.3594  19.3878  19.5793  19.8223  19.8704  20.1366  20.7608  20.7842
    21.2627  21.2867  21.3968  21.5064  21.9573  22.0843  22.2171  22.5234
    22.5630  23.4314  23.4919  23.6058  24.3256  24.3316

          k = 0.5775 0.0333 0.0000 (  9206 PWs)   bands (ev):

    -8.1573  -8.1458  -8.1149  -8.1031  -2.4600  -2.4472  -2.1585  -2.1423
     0.6326   0.7375   1.4452   1.6191   2.1972   2.2069   2.2600   2.2696
     2.5839   2.6283   5.4837   5.6397   7.0098   7.2544   8.2995   8.4063
     8.5812   8.6319   9.8664  10.2648  10.3458  11.0188  11.2053  11.8495
    12.7002  12.7497  12.9387  12.9406  14.3466  14.4724  14.8673  15.5074
    16.3185  16.4668  16.8772  17.2741  18.5204  18.6520  18.7900  19.3954
    19.4462  19.5555  19.5789  19.8602  19.9357  20.2081  20.6245  20.8365
    21.1071  21.2318  21.3116  21.6113  22.0245  22.0505  22.2703  22.4554
    22.5274  23.4696  23.5361  23.5503  24.2137  24.2507

          k = 0.5775 0.0222 0.0000 (  9216 PWs)   bands (ev):

    -8.1605  -8.1491  -8.1181  -8.1063  -2.4669  -2.4540  -2.1652  -2.1490
     0.6288   0.7339   1.4427   1.6173   2.2431   2.2517   2.3032   2.3119
     2.5782   2.6229   5.4721   5.6293   6.9995   7.2423   8.2479   8.3569
     8.5382   8.5891   9.8977  10.3482  10.3731  10.9770  11.1995  11.8623
    12.7354  12.7950  12.8752  12.9670  14.2842  14.3945  14.8789  15.5020
    16.3062  16.5307  16.9496  17.2351  18.5261  18.5799  18.8707  19.4373
    19.4896  19.5710  19.7090  19.9141  20.0519  20.2757  20.4806  20.8158
    21.0232  21.1632  21.2021  21.7159  22.0391  22.0852  22.3082  22.4026
    22.4886  23.4907  23.5104  23.6447  24.1230  24.1873

          k = 0.5775 0.0111 0.0000 (  9224 PWs)   bands (ev):

    -8.1625  -8.1510  -8.1200  -8.1082  -2.4710  -2.4581  -2.1693  -2.1530
     0.6265   0.7318   1.4412   1.6161   2.2713   2.2793   2.3296   2.3379
     2.5748   2.6197   5.4647   5.6227   6.9932   7.2348   8.2166   8.3269
     8.5116   8.5627   9.9148  10.3925  10.4081  10.9451  11.1960  11.8698
    12.7327  12.8348  12.8512  12.9838  14.2452  14.3427  14.8850  15.4988
    16.2958  16.5777  16.9962  17.2106  18.5243  18.5320  18.9175  19.4757
    19.4981  19.5577  19.8272  20.0194  20.1434  20.3247  20.3375  20.7332
    21.0183  21.1065  21.1142  21.7909  22.0366  22.1293  22.3305  22.3667
    22.4541  23.4680  23.5423  23.7606  24.0627  24.1330

          k = 0.5775 0.0000 0.0000 (  9234 PWs)   bands (ev):

    -8.1632  -8.1517  -8.1207  -8.1088  -2.4723  -2.4595  -2.1706  -2.1544
     0.6257   0.7310   1.4407   1.6157   2.2808   2.2885   2.3385   2.3466
     2.5736   2.6186   5.4622   5.6205   6.9911   7.2323   8.2060   8.3168
     8.5026   8.5538   9.9201  10.4005  10.4294  10.9326  11.1948  11.8722
    12.7315  12.8209  12.8712  12.9896  14.2320  14.3244  14.8870  15.4977
    16.2920  16.5947  17.0124  17.2023  18.5096  18.5285  18.9327  19.4952
    19.4977  19.5477  19.8745  20.1064  20.1793  20.2406  20.3431  20.6919
    21.0229  21.0771  21.0868  21.8189  22.0363  22.1461  22.3378  22.3533
    22.4395  23.4613  23.5548  23.8394  24.0413  24.0419

          k = 0.5583 0.0000 0.0000 (  9202 PWs)   bands (ev):

    -8.1716  -8.1600  -8.1287  -8.1168  -2.4584  -2.4456  -2.1557  -2.1395
     0.6044   0.7092   1.4323   1.6079   2.2839   2.2916   2.3415   2.3496
     2.5920   2.6385   5.4677   5.6268   7.0043   7.2437   8.2108   8.3224
     8.5055   8.5585   9.9324  10.4043  10.4331  10.9432  11.1596  11.8655
    12.7683  12.8181  12.8741  12.9923  14.2390  14.3317  14.8710  15.5086
    16.3236  16.5968  17.0135  17.2074  18.4992  18.5118  18.8889  19.4444
    19.4933  19.5860  19.8008  20.0762  20.0843  20.1417  20.3444  20.6379
    20.9782  21.0416  21.0480  21.9112  22.0402  22.2412  22.3421  22.3541
    22.5329  23.5102  23.6065  23.8164  24.0440  24.1020

          k = 0.5390 0.0000 0.0000 (  9192 PWs)   bands (ev):

    -8.1964  -8.1848  -8.1523  -8.1404  -2.4171  -2.4044  -2.1113  -2.0953
     0.5440   0.6471   1.4073   1.5846   2.2932   2.3009   2.3507   2.3588
     2.6436   2.6943   5.4848   5.6464   7.0434   7.2774   8.2250   8.3390
     8.5147   8.5726   9.9684  10.4156  10.4444  10.9749  11.0639  11.8459
    12.8096  12.8676  12.8828  13.0004  14.2600  14.3545  14.8291  15.5406
    16.4124  16.6030  17.0168  17.2220  18.4226  18.5096  18.7842  19.2990
    19.4695  19.6044  19.6652  19.8189  19.8908  20.0277  20.3503  20.4886
    20.7397  20.9303  21.1058  22.0526  22.1339  22.3462  22.3651  22.4792
    22.7527  23.6454  23.7523  23.7534  24.0503  24.2692

          k = 0.5198 0.0000 0.0000 (  9187 PWs)   bands (ev):

    -8.2367  -8.2251  -8.1908  -8.1788  -2.3497  -2.3373  -2.0384  -2.0225
     0.4527   0.5537   1.3668   1.5468   2.3086   2.3164   2.3660   2.3741
     2.7187   2.7762   5.5159   5.6810   7.1069   7.3321   8.2486   8.3668
     8.5308   8.5965  10.0263  10.4345  10.4631  10.9287  11.0269  11.8153
    12.7948  12.8971  13.0055  13.0138  14.2947  14.3956  14.7749  15.5918
    16.5438  16.6127  17.0213  17.2437  18.3027  18.5034  18.6542  19.0765
    19.3292  19.3974  19.4847  19.5604  19.7167  19.9666  20.2726  20.3640
    20.4469  20.8147  21.1701  22.0751  22.3333  22.4027  22.4039  22.7826
    23.0110  23.6629  23.8367  23.9748  24.0617  24.4645

          k = 0.5005 0.0000 0.0000 (  9183 PWs)   bands (ev):

    -8.2912  -8.2795  -8.2429  -8.2307  -2.2588  -2.2466  -1.9383  -1.9226
     0.3407   0.4397   1.3123   1.4958   2.3302   2.3379   2.3873   2.3953
     2.8055   2.8722   5.5640   5.7331   7.1927   7.4057   8.2816   8.4059
     8.5552   8.6307  10.1031  10.4607  10.4892  10.7727  11.0980  11.7763
    12.7732  12.9168  13.0322  13.1582  14.3431  14.4596  14.7224  15.6595
    16.6248  16.7020  17.0254  17.2675  18.1486  18.4833  18.5157  18.7985
    19.0081  19.1176  19.1959  19.2515  19.6713  19.9335  20.0206  20.1514
    20.3867  20.7764  21.2289  22.1084  22.2922  22.4755  22.6664  23.0963
    23.2271  23.5952  24.0423  24.0810  24.2443  24.4242

          k = 0.4813 0.0000 0.0000 (  9195 PWs)   bands (ev):

    -8.3581  -8.3463  -8.3069  -8.2946  -2.1475  -2.1356  -1.8128  -1.7975
     0.2176   0.3149   1.2456   1.4332   2.3577   2.3654   2.4144   2.4225
     2.8928   2.9712   5.6331   5.8058   7.2975   7.4953   8.3240   8.4563
     8.5890   8.6758  10.1952  10.4942  10.5225  10.6093  11.1868  11.7324
    12.7448  12.9416  13.0553  13.3060  14.4045  14.5518  14.6820  15.7399
    16.6375  16.8717  17.0260  17.2850  17.9657  18.3734  18.4346  18.4844
    18.6613  18.7395  18.8218  19.0406  19.5105  19.7606  19.8910  19.9332
    20.4183  20.8512  21.2801  22.1532  22.2210  22.5813  22.8840  23.2494
    23.3799  23.6860  24.1138  24.2144  24.3928  24.5339

          k = 0.4620 0.0000 0.0000 (  9213 PWs)   bands (ev):

    -8.4355  -8.4235  -8.3811  -8.3686  -2.0204  -2.0087  -1.6641  -1.6492
     0.0924   0.1882   1.1688   1.3611   2.3911   2.3988   2.4474   2.4554
     2.9714   3.0640   5.7270   5.9022   7.4173   7.5975   8.3759   8.5182
     8.6334   8.7324  10.2984  10.4475  10.5348  10.5628  11.2916  11.6875
    12.7108  12.9710  13.0824  13.4351  14.4784  14.6603  14.6758  15.8288
    16.6471  17.0168  17.0356  17.2832  17.7561  18.1487  18.2252  18.3017
    18.3404  18.3639  18.4553  18.7934  19.2848  19.5199  19.7017  19.9528
    20.4581  21.0056  21.3251  22.1235  22.2106  22.7111  23.0260  23.1278
    23.5942  23.8758  24.1690  24.3131  24.3698  24.8151

          k = 0.4428 0.0000 0.0000 (  9231 PWs)   bands (ev):

    -8.5213  -8.5092  -8.4635  -8.4509  -1.8839  -1.8720  -1.4945  -1.4800
    -0.0259   0.0685   1.0842   1.2814   2.4303   2.4378   2.4860   2.4940
     3.0346   3.1440   5.8486   6.0248   7.5468   7.7083   8.4377   8.5918
     8.6891   8.8013  10.2941  10.4081  10.5822  10.6099  11.4106  11.6457
    12.6737  13.0043  13.1130  13.5381  14.5637  14.6603  14.8293  15.9205
    16.6465  16.9849  17.1667  17.2449  17.5189  17.8020  17.9378  18.0035
    18.0648  18.1149  18.2044  18.5363  19.0509  19.3270  19.6072  19.9818
    20.5054  21.2004  21.3651  22.0060  22.2823  22.8523  22.9718  23.0735
    23.7021  24.0454  24.2514  24.3312  24.3521  25.0574

          k = 0.4235 0.0000 0.0000 (  9223 PWs)   bands (ev):

    -8.6136  -8.6014  -8.5524  -8.5396  -1.7472  -1.7343  -1.3064  -1.2922
    -0.1270  -0.0344   0.9943   1.1964   2.4749   2.4824   2.5301   2.5380
     3.0787   3.2071   5.9990   6.1749   7.6792   7.8236   8.5106   8.6771
     8.7568   8.8829  10.1550  10.5190  10.6362  10.6635  11.5421  11.6113
    12.6379  13.0408  13.1461  13.6147  14.6587  14.6813  15.0023  16.0065
    16.6201  16.9041  17.1564  17.2133  17.2532  17.4522  17.5757  17.6768
    17.8301  17.8863  18.0812  18.2885  18.8478  19.2069  19.6051  20.0143
    20.5593  21.4006  21.4117  21.8745  22.3714  22.8038  22.9895  23.0285
    23.6851  24.1616  24.2851  24.3355  24.3550  25.2307

          k = 0.4043 0.0000 0.0000 (  9229 PWs)   bands (ev):

    -8.7107  -8.6983  -8.6459  -8.6330  -1.6236  -1.6081  -1.1024  -1.0885
    -0.1970  -0.1076   0.9014   1.1084   2.5248   2.5323   2.5793   2.5872
     3.1027   3.2516   6.1777   6.3521   7.8057   7.9389   8.5965   8.7739
     8.8366   8.9779  10.0361  10.6259  10.6963  10.7230  11.5886  11.6841
    12.6091  13.0791  13.1803  13.6687  14.7197  14.7610  15.1756  16.0704
    16.5374  16.7406  16.9600  17.0239  17.1054  17.1160  17.2205  17.4165
    17.6366  17.6950  18.0499  18.0625  18.6967  19.1710  19.6764  20.0463
    20.6188  21.4314  21.6239  21.7345  22.4826  22.6291  22.9080  23.1042
    23.5575  24.1927  24.2090  24.3149  24.4684  25.3142

          k = 0.3850 0.0000 0.0000 (  9211 PWs)   bands (ev):

    -8.8107  -8.7982  -8.7426  -8.7295  -1.5309  -1.5100  -0.8855  -0.8718
    -0.2182  -0.1346   0.8084   1.0199   2.5798   2.5872   2.6335   2.6413
     3.1077   3.2778   6.3822   6.5546   7.9156   8.0500   8.6984   8.8818
     8.9285   9.0867   9.9434  10.7232  10.7619  10.7881  11.5820  11.8350
    12.5937  13.1177  13.2138  13.7049  14.7682  14.8660  15.3211  16.0756
    16.3647  16.4924  16.6458  16.7666  16.8765  16.8900  16.9004  17.2574
    17.5168  17.5376  17.8633  18.1077  18.6018  19.2125  19.8035  20.0747
    20.6826  21.4564  21.5906  21.8235  22.4492  22.6220  22.7323  23.1734
    23.3531  24.0669  24.1832  24.2834  24.5844  25.2852

          k = 0.3658 0.0000 0.0000 (  9239 PWs)   bands (ev):

    -8.9123  -8.8996  -8.8408  -8.8275  -1.4857  -1.4563  -0.6600  -0.6457
    -0.1748  -0.0999   0.7190   0.9341   2.6395   2.6468   2.6923   2.7000
     3.0961   3.2872   6.6093   6.7796   7.9980   8.1529   8.8192   8.9996
     9.0319   9.2098   9.8832  10.8058  10.8325  10.8580  11.5952  11.9930
    12.5983  13.1541  13.2441  13.7268  14.8131  14.9654  15.4013  15.9688
    16.1114  16.1955  16.3216  16.4407  16.5482  16.6435  16.8251  17.1908
    17.3948  17.4975  17.6945  18.1974  18.5575  19.3130  19.9727  20.0960
    20.7491  21.4475  21.4736  21.9996  22.2639  22.5192  22.7937  23.1045
    23.1718  23.9171  24.0939  24.2312  24.7005  24.9955

          k = 0.3465 0.0000 0.0000 (  9245 PWs)   bands (ev):

    -9.0140  -9.0012  -8.9394  -8.9260  -1.4921  -1.4529  -0.4325  -0.4155
    -0.0633   0.0019   0.6397   0.8560   2.7035   2.7108   2.7554   2.7630
     3.0711   3.2825   6.8548   7.0237   8.0455   8.2446   8.9590   9.1261
     9.1461   9.3475   9.8603  10.8704  10.9071  10.9318  11.6317  12.1565
    12.6279  13.1853  13.2678  13.7361  14.8309  15.0410  15.3832  15.7446
    15.8187  15.8819  16.0080  16.1329  16.2403  16.4058  16.8509  17.1758
    17.3685  17.4844  17.5575  18.2873  18.5588  19.4526  20.1062  20.1723
    20.8160  21.3101  21.4805  22.0729  22.1464  22.2835  22.8353  22.9946
    23.0790  23.7513  23.9629  24.1416  24.6982  24.8172

          k = 0.3273 0.0000 0.0000 (  9249 PWs)   bands (ev):

    -9.1147  -9.1019  -9.0372  -9.0236  -1.5395  -1.4917  -0.2173  -0.1910
     0.1045   0.1616   0.5840   0.7948   2.7714   2.7786   2.8222   2.8298
     3.0357   3.2663   7.1148   7.2831   8.0567   8.3226   9.1143   9.2597
     9.2696   9.4999   9.8766  10.9168  10.9846  11.0084  11.6934  12.3238
    12.6848  13.2069  13.2805  13.7316  14.7863  15.0464  15.2657  15.4515
    15.5158  15.5687  15.7515  15.8489  15.9587  16.2374  16.9315  17.1830
    17.4437  17.4558  17.4809  18.3649  18.6042  19.6122  20.1009  20.3887
    20.8799  21.1856  21.4741  21.8776  22.0371  22.2628  22.5612  22.8914
    23.2109  23.5780  23.8149  23.9845  24.4052  24.7513

          k = 0.3080 0.0000 0.0000 (  9249 PWs)   bands (ev):

    -9.2135  -9.2005  -9.1331  -9.1194  -1.6128  -1.5583  -0.0478   0.0068
     0.3124   0.3637   0.5850   0.7709   2.8428   2.8499   2.8925   2.8999
     2.9930   3.2412   7.3851   7.5540   8.0361   8.3854   9.2797   9.3986
     9.4008   9.6672   9.9304  10.9481  11.0636  11.0862  11.7806  12.4931
    12.7683  13.2132  13.2764  13.7078  14.6507  14.9052  15.0843  15.1283
    15.2177  15.2653  15.5957  15.6258  15.7100  16.1736  17.0377  17.1972
    17.3948  17.4775  17.5890  18.4252  18.6965  19.7706  20.0749  20.6016
    20.9364  21.0857  21.4508  21.6867  21.7900  22.2931  22.3458  22.6251
    23.4063  23.4097  23.6690  23.7206  24.1141  24.2884

          k = 0.2888 0.0000 0.0000 (  9267 PWs)   bands (ev):

    -9.3094  -9.2963  -9.2264  -9.2126  -1.6997  -1.6405   0.0276   0.1386
     0.5468   0.5946   0.6902   0.8227   2.9171   2.9241   2.9455   2.9655
     2.9728   3.2098   7.6619   7.8330   7.9910   8.4324   9.4496   9.5340
     9.5440   9.8488  10.0164  10.9709  11.1421  11.1634  11.8909  12.6620
    12.8748  13.1973  13.2491  13.6533  14.4311  14.6369  14.7963  14.8866
    14.9330  14.9777  15.3809  15.5013  15.6087  16.2099  17.1555  17.2094
    17.3808  17.4677  17.7644  18.4661  18.8407  19.9006  20.0228  20.7682
    20.9791  21.0297  21.4077  21.5321  21.5507  22.0393  22.3059  22.3796
    23.2465  23.3491  23.4711  23.5312  23.8175  23.9898

          k = 0.2695 0.0000 0.0000 (  9271 PWs)   bands (ev):

    -9.4017  -9.3886  -9.3163  -9.3023  -1.7924  -1.7298   0.0166   0.1792
     0.7982   0.8446   0.8909   0.9746   2.8959   2.9937   3.0006   3.0407
     3.0480   3.1741   7.9289   7.9411   8.1166   8.4639   9.6204   9.6667
     9.6926  10.0439  10.1269  10.9939  11.2176  11.2375  12.0181  12.8272
    12.9995  13.1526  13.1928  13.5505  14.1607  14.3237  14.4706  14.6676
    14.7108  14.7167  15.2120  15.3389  15.6176  16.3141  17.2132  17.2778
    17.4183  17.4467  17.9411  18.4866  19.0394  19.9393  19.9706  20.7998
    21.0004  21.0393  21.3267  21.3425  21.4911  21.8061  21.9577  22.3201
    22.9224  23.1101  23.2627  23.3784  23.5085  23.9040

          k = 0.2503 0.0000 0.0000 (  9281 PWs)   bands (ev):

    -9.4898  -9.4766  -9.4021  -9.3881  -1.8860  -1.8210  -0.0338   0.1578
     1.0599   1.1067   1.1392   1.1963   2.8463   3.0718   3.0786   3.1174
     3.1246   3.1362   7.8564   8.2188   8.4018   8.4810   9.7889   9.7928
     9.8450  10.2500  10.2535  11.0261  11.2871  11.3053  12.1505  12.9821
    13.0749  13.1049  13.1360  13.3861  13.8715  14.0099  14.1670  14.4267
    14.4694  14.6057  15.0937  15.2262  15.6171  16.4548  17.2034  17.3996
    17.4102  17.5069  18.1057  18.4870  19.2878  19.8205  19.9667  20.6698
    20.9917  21.1116  21.1246  21.2543  21.5727  21.5987  21.5990  22.1085
    22.4946  23.0088  23.0672  23.1609  23.1832  23.7101

          k = 0.2310 0.0000 0.0000 (  9281 PWs)   bands (ev):

    -9.5731  -9.5598  -9.4834  -9.4692  -1.9775  -1.9106  -0.0976   0.1097
     1.3262   1.3757   1.4075   1.4511   2.7993   3.0979   3.1507   3.1574
     3.1948   3.2018   7.7783   8.4855   8.4908   8.6857   9.9015   9.9581
    10.0000  10.3873  10.4632  11.0743  11.3467  11.3630  12.2658  12.9653
    12.9872  13.1073  13.1650  13.2708  13.5951  13.7299  13.9091  14.2157
    14.2585  14.5605  15.0256  15.1614  15.6006  16.6079  17.1754  17.3551
    17.5163  17.6401  18.2568  18.4701  19.5721  19.6643  19.9054  20.4688
    20.9468  20.9500  21.1443  21.1842  21.2436  21.4210  21.6520  21.7710
    22.1289  22.8411  22.9223  22.9516  22.9565  23.6341

          k = 0.2118 0.0000 0.0000 (  9291 PWs)   bands (ev):

    -9.6512  -9.6378  -9.5595  -9.5453  -2.0650  -1.9967  -0.1645   0.0524
     1.5912   1.6469   1.6841   1.7199   2.7580   3.0609   3.2295   3.2361
     3.2721   3.2790   7.6982   8.4792   8.7520   8.9660   9.9928  10.1228
    10.1562  10.5215  10.6748  11.1384  11.3921  11.4065  12.3260  12.8298
    12.8463  12.9076  13.1311  13.2581  13.4931  13.5664  13.7358  14.0398
    14.0831  14.5694  15.0017  15.1384  15.5726  16.7518  17.1257  17.2793
    17.6225  17.8072  18.3976  18.4434  19.4723  19.8125  19.8705  20.2540
    20.8073  20.8646  20.9019  21.0156  21.1090  21.2755  21.3941  21.6150
    21.9520  22.4864  22.7797  22.8599  22.9423  23.5794

          k = 0.1925 0.0000 0.0000 (  9285 PWs)   bands (ev):

    -9.7235  -9.7101  -9.6302  -9.6159  -2.1472  -2.0777  -0.2300  -0.0067
     1.8467   1.9156   1.9626   1.9934   2.7282   3.0275   3.3073   3.3138
     3.3482   3.3550   7.6186   8.4643   8.9964   9.2404  10.0671  10.2820
    10.3113  10.6503  10.8697  11.2051  11.4191  11.4316  12.2891  12.6356
    12.6775  12.6908  12.9964  13.0572  13.5900  13.6254  13.6898  13.9039
    13.9479  14.6180  15.0130  15.1486  15.5417  16.8631  17.0526  17.1822
    17.7113  17.9934  18.4205  18.5307  19.2512  19.7071  20.0489  20.1365
    20.5820  20.6991  20.7500  20.8289  20.8725  21.0555  21.1629  21.4261
    22.0004  22.1255  22.7384  22.7732  22.9778  23.4702

          k = 0.1733 0.0000 0.0000 (  9275 PWs)   bands (ev):

    -9.7899  -9.7764  -9.6951  -9.6806  -2.2230  -2.1527  -0.2920  -0.0639
     2.0780   2.1755   2.2387   2.2657   2.7219   3.0012   3.3829   3.3893
     3.4222   3.4288   7.5413   8.4427   9.2152   9.5067  10.1337  10.4304
    10.4613  10.7708  11.0216  11.2461  11.4250  11.4358  12.1549  12.3664
    12.5179  12.5295  12.8476  12.9098  13.6786  13.7732  13.7776  13.8113
    13.8558  14.6957  15.0502  15.1832  15.5172  16.9170  16.9562  17.0653
    17.7741  18.1748  18.4186  18.6557  19.0191  19.5995  19.8650  20.2168
    20.2907  20.4804  20.6123  20.6253  20.7204  20.9127  21.0821  21.1478
    21.7668  22.1191  22.5958  22.8210  23.0509  23.3210

          k = 0.1540 0.0000 0.0000 (  9273 PWs)   bands (ev):

    -9.8500  -9.8365  -9.7538  -9.7393  -2.2920  -2.2210  -0.3491  -0.1175
     2.2542   2.4155   2.5082   2.5321   2.7669   2.9901   3.4553   3.4616
     3.4929   3.4995   7.4675   8.4161   9.3973   9.7626  10.2064  10.5576
    10.5998  10.8839  11.0955  11.2288  11.4093  11.4187  11.9691  12.1150
    12.3590  12.3697  12.7841  12.8643  13.7619  13.7624  13.8072  13.9283
    13.9449  14.7946  15.1049  15.2343  15.5087  16.8390  16.8981  16.9313
    17.8012  18.2866  18.4467  18.7673  18.8335  19.4891  19.7087  20.0123
    20.0357  20.1479  20.4615  20.5647  20.5837  20.8455  21.0300  21.0525
    21.4203  22.2138  22.4670  22.7725  23.1528  23.2719

          k = 0.1348 0.0000 0.0000 (  9269 PWs)   bands (ev):

    -9.9036  -9.8900  -9.8061  -9.7916  -2.3537  -2.2821  -0.4007  -0.1663
     2.3443   2.6101   2.7669   2.7880   2.8910   3.0163   3.5233   3.5294
     3.5592   3.5657   7.3982   8.3860   9.5320  10.0043  10.2967  10.6467
    10.7150  10.9946  11.0727  11.1447  11.3748  11.3833  11.7799  11.8971
    12.2071  12.2176  12.8398  12.9294  13.7542  13.7988  13.8199  14.0718
    14.1656  14.9082  15.1700  15.2955  15.5237  16.7054  16.7848  16.8105
    17.7841  18.1946  18.4924  18.8132  18.8497  19.3527  19.5810  19.7459
    19.8306  19.8870  20.3069  20.4108  20.5624  20.5701  21.0024  21.0995
    21.2203  22.2505  22.4150  22.5822  23.2754  23.3805

          k = 0.1155 0.0000 0.0000 (  9267 PWs)   bands (ev):

    -9.9503  -9.9367  -9.8519  -9.8373  -2.4077  -2.3356  -0.4462  -0.2095
     2.3689   2.7172   3.0101   3.0284   3.0691   3.1175   3.5855   3.5916
     3.6199   3.6263   7.3342   8.3539   9.6179  10.2248  10.4003  10.6792
    10.7864  10.9779  11.0221  11.1067  11.3270  11.3350  11.6287  11.7302
    12.0672  12.0777  12.9975  13.0805  13.7801  13.8241  13.8461  14.2029
    14.4121  15.0301  15.2398  15.3612  15.5659  16.5613  16.6313  16.6746
    17.7183  17.9507  18.5269  18.8634  18.8745  19.1578  19.4694  19.5468
    19.6973  19.7450  20.1565  20.2641  20.3416  20.5786  20.8265  20.9941
    21.2696  22.2323  22.3509  22.5084  23.4110  23.5539

          k = 0.0963 0.0000 0.0000 (  9259 PWs)   bands (ev):

    -9.9902  -9.9766  -9.8909  -9.8762  -2.4537  -2.3813  -0.4852  -0.2467
     2.3666   2.7483   3.2322   3.2476   3.2582   3.2777   3.6408   3.6468
     3.6738   3.6801   7.2763   8.3212   9.6653  10.4033  10.4814  10.6504
    10.7894  10.8684  10.9170  11.2151  11.2727  11.2804  11.5508  11.6269
    11.9431  11.9537  13.2147  13.2823  13.8313  13.8426  13.8745  14.3168
    14.6701  15.1534  15.3091  15.4266  15.6337  16.4139  16.4772  16.5142
    17.6063  17.6674  18.5278  18.7657  18.8763  18.9284  19.3398  19.4783
    19.6374  19.7023  20.0168  20.1294  20.2344  20.6025  20.6416  20.9996
    21.1992  22.1202  22.1798  22.7347  23.5527  23.5809

          k = 0.0770 0.0000 0.0000 (  9245 PWs)   bands (ev):

   -10.0230 -10.0093  -9.9230  -9.9083  -2.4916  -2.4189  -0.5174  -0.2775
     2.3561   2.7504   3.4260   3.4342   3.4387   3.4466   3.6881   3.6939
     3.7198   3.7260   7.2256   8.2896   9.6881  10.4735  10.4748  10.5765
    10.7267  10.8388  10.9036  11.2186  11.2263  11.3071  11.5488  11.5860
    11.8378  11.8485  13.4489  13.5052  13.8226  13.8978  13.9400  14.4081
    14.9293  15.2705  15.3734  15.4873  15.7201  16.2714  16.3303  16.3501
    17.3808  17.4572  18.4954  18.5989  18.7112  18.8124  19.1735  19.5056
    19.5822  19.7102  19.8936  20.0114  20.2576  20.5969  20.6349  21.0133
    21.0758  21.9004  22.1140  23.0236  23.2939  23.6925

          k = 0.0578 0.0000 0.0000 (  9237 PWs)   bands (ev):

   -10.0486 -10.0349  -9.9481  -9.9334  -2.5212  -2.4483  -0.5426  -0.3017
     2.3445   2.7448   3.5791   3.5868   3.5926   3.6025   3.7261   3.7319
     3.7568   3.7629   7.1834   8.2611   9.6969  10.3928  10.4138  10.4864
    10.6368  10.9262  10.9711  11.1705  11.1783  11.3699  11.5871  11.5933
    11.7536  11.7645  13.6324  13.7250  13.8355  13.9686  14.0097  14.4723
    15.1783  15.3734  15.4286  15.5393  15.8154  16.1430  16.1991  16.1992
    17.1089  17.2853  18.4318  18.4461  18.5307  18.7294  18.9974  19.4819
    19.5633  19.7385  19.7919  19.9143  20.3711  20.6691  20.6920  20.9473
    21.0302  21.6940  22.0497  23.0024  23.3232  23.8214

          k = 0.0385 0.0000 0.0000 (  9225 PWs)   bands (ev):

   -10.0670 -10.0533  -9.9660  -9.9513  -2.5424  -2.4693  -0.5608  -0.3191
     2.3350   2.7385   3.6923   3.6987   3.7141   3.7221   3.7540   3.7597
     3.7839   3.7899   7.1514   8.2382   9.6987  10.3063  10.3290  10.4059
    10.5548  11.0312  11.0492  11.1331  11.1410  11.4033  11.6248  11.6320
    11.6922  11.7032  13.6620  13.9187  13.9696  14.0321  14.0722  14.5070
    15.4004  15.4543  15.4710  15.5793  15.9086  16.0391  16.0759  16.0938
    16.8702  17.1130  18.2983  18.3971  18.3979  18.6583  18.8471  19.3690
    19.6192  19.7158  19.7697  19.8419  20.5249  20.6988  20.8396  20.8570
    21.0457  21.5038  21.9970  22.7332  23.6011  23.9280

          k = 0.0193 0.0000 0.0000 (  9235 PWs)   bands (ev):

   -10.0780 -10.0643  -9.9768  -9.9621  -2.5551  -2.4820  -0.5717  -0.3295
     2.3288   2.7341   3.7628   3.7687   3.7710   3.7767   3.7901   3.7966
     3.8005   3.8065   7.1312   8.2232   9.6978  10.2472  10.2687  10.3517
    10.4999  11.1030  11.1064  11.1094  11.1173  11.4185  11.6541  11.6549
    11.6647  11.6660  13.6417  14.0593  14.0765  14.1019  14.1160  14.5161
    15.4978  15.5061  15.5659  15.6044  15.9708  15.9847  15.9945  16.0247
    16.6936  16.9750  18.2135  18.3159  18.3637  18.6126  18.7473  19.2856
    19.6583  19.6688  19.7928  19.7972  20.6738  20.7188  20.7684  21.0126
    21.0565  21.3441  21.9626  22.5264  23.8323  23.9995

          k = 0.0000 0.0000 0.0000 (  9215 PWs)   bands (ev):

   -10.0817 -10.0680  -9.9804  -9.9657  -2.5594  -2.4862  -0.5753  -0.3330
     2.3267   2.7325   3.7767   3.7824   3.7868   3.7925   3.8060   3.8120
     3.8160   3.8220   7.1244   8.2180   9.6971  10.2266  10.2474  10.3327
    10.4807  11.1013  11.1092  11.1236  11.1316  11.4229  11.6424  11.6535
    11.6654  11.6764  13.6319  14.0925  14.1130  14.1318  14.1523  14.5148
    15.5069  15.5240  15.6131  15.6301  15.9468  15.9647  16.0005  16.0184
    16.6243  16.9196  18.1844  18.2886  18.3516  18.5970  18.7123  19.2553
    19.6529  19.6723  19.7821  19.8012  20.7259  20.7435  20.7458  21.0604
    21.0793  21.2703  21.9507  22.4442  23.9739  24.0249

     Writing all to output data dir ./work/Al2S2.save/
 
     init_run     :      4.61s CPU      4.66s WALL (       1 calls)
     electrons    :    237.46s CPU    286.56s WALL (       1 calls)

     Called by init_run:
     wfcinit      :      0.00s CPU      0.00s WALL (       1 calls)
     potinit      :      4.44s CPU      4.48s WALL (       1 calls)
     hinit0       :      0.10s CPU      0.10s WALL (       1 calls)

     Called by electrons:
     c_bands      :    237.45s CPU    286.56s WALL (       1 calls)
     v_of_rho     :      4.35s CPU      4.38s WALL (       1 calls)
     newd         :      0.04s CPU      0.05s WALL (       1 calls)
     PAW_pot      :      0.09s CPU      0.10s WALL (       1 calls)
     vdW_kernel   :      4.31s CPU      4.32s WALL (       1 calls)

     Called by c_bands:
     init_us_2    :      0.06s CPU      0.06s WALL (      91 calls)
     init_us_2:cp :      0.06s CPU      0.06s WALL (      91 calls)
     cegterg      :    232.33s CPU    280.14s WALL (     353 calls)

     Called by *egterg:
     cdiaghg      :     32.64s CPU     33.22s WALL (    6287 calls)
     h_psi        :    124.16s CPU    169.27s WALL (    6640 calls)
     s_psi        :     11.56s CPU     11.78s WALL (    6640 calls)
     g_psi        :      0.39s CPU      0.39s WALL (    6196 calls)

     Called by h_psi:
     h_psi:calbec :     13.09s CPU     16.47s WALL (    6640 calls)
     vloc_psi     :     93.43s CPU    134.41s WALL (    6640 calls)
     add_vuspsi   :     16.59s CPU     17.32s WALL (    6640 calls)

     General routines
     calbec       :     13.07s CPU     16.45s WALL (    6640 calls)
     fft          :      0.02s CPU      0.03s WALL (      62 calls)
     fftw         :     89.23s CPU    128.58s WALL (  461172 calls)
     davcio       :      0.06s CPU      0.08s WALL (     182 calls)
 
     Parallel routines
 
     PWSCF        :   4m 3.07s CPU   4m53.50s WALL

 
   This run was terminated on:  14: 8:54  17Jun2023            

=------------------------------------------------------------------------------=
   JOB DONE.
=------------------------------------------------------------------------------=
