
     Program BANDS v.7.0 starts on 17Jun2023 at 14: 8:57 

     This program is part of the open-source Quantum ESPRESSO suite
     for quantum simulation of materials; please cite
         "P. Giannozzi et al., J. Phys.:Condens. Matter 21 395502 (2009);
         "P. Giannozzi et al., J. Phys.:Condens. Matter 29 465901 (2017);
         "P. Giannozzi et al., J. Chem. Phys. 152 154105 (2020);
          URL http://www.quantum-espresso.org", 
     in publications or presentations arising from this work. More details at
     http://www.quantum-espresso.org/quote

     Parallel version (MPI), running on    16 processors

     MPI processes distributed on     1 nodes
     R & G space division:  proc/nbgrp/npool/nimage =      16
     4241 MiB available memory on the printing compute node when the environment starts
 

     Reading xml data from directory:

     ./work/Al2S2.save/
     Message from routine volume:
     axis vectors are left-handed
     file Al.pbe-n-kjpaw_psl.1.0.0.UPF: wavefunction(s)  3S 3P renormalized
     file S.pbe-n-kjpaw_psl.1.0.0.UPF: wavefunction(s)  3S 3P renormalized

     IMPORTANT: XC functional enforced from input :
     Exchange-correlation= VDW-DF2-B86R
                           (   1   4  26   0   2   0   0)
     Any further DFT definition will be discarded
     Please, verify this is what you really want

 
     Parallelization info
     --------------------
     sticks:   dense  smooth     PW     G-vecs:    dense   smooth      PW
     Min          39      39     11                 4603     4603     731
     Max          40      40     12                 4609     4609     750
     Sum         625     625    187                73689    73689   11939
 
     Using Slab Decomposition
 


     %%%%%%%%%%%%%%%%%%%%%%%%%%%%%%%%%%%%%%%%%%%%%%%%%%%%%%%%%%%%%%%%%%%%%%%%
     %                                                                      %
     % You are using vdW-DF, which was implemented by the Thonhauser group. %
     % Please cite the following two papers that made this development      %
     % possible and the two reviews that describe the various versions:     %
     %                                                                      %
     %   T. Thonhauser et al., PRL 115, 136402 (2015).                      %
     %   T. Thonhauser et al., PRB 76, 125112 (2007).                       %
     %   K. Berland et al., Rep. Prog. Phys. 78, 066501 (2015).             %
     %   D.C. Langreth et al., J. Phys.: Condens. Matter 21, 084203 (2009). %
     %                                                                      %
     %                                                                      %
     % If you are calculating the stress with vdW-DF, please also cite:     %
     %                                                                      %
     %   R. Sabatini et al., J. Phys.: Condens. Matter 24, 424209 (2012).   %
     %                                                                      %
     %%%%%%%%%%%%%%%%%%%%%%%%%%%%%%%%%%%%%%%%%%%%%%%%%%%%%%%%%%%%%%%%%%%%%%%%


     Reading collected, re-writing distributed wavefunctions
     high-symmetry point:  0.0000 0.0000 0.0000   x coordinate   0.0000
     high-symmetry point:  0.5775 0.3325 0.0000   x coordinate   0.6664
     high-symmetry point:  0.5775 0.0000 0.0000   x coordinate   0.9990
     high-symmetry point:  0.0000 0.0000 0.0000   x coordinate   1.5765

     Plottable bands (eV) written to file AA.bands.gnu
     Bands written to file AA.bands

 **************************************************************************

                    xk=(   0.00000,   0.00000,   0.00000  )

     point group C_s (m)    
     there are  2 classes
     the character table:

       E     s    
A'     1.00  1.00
A''    1.00 -1.00

     the symmetry operations in each class and the name of the first element:

     E        1
                                                                 
     s        2
                                                                 

     Band symmetry, C_s (m)     point group:

     e(  1 -  1) =    -10.08170  eV     1   --> A'             
     e(  2 -  2) =    -10.06801  eV     1   --> A'             
     e(  3 -  3) =     -9.98044  eV     1   --> A'             
     e(  4 -  4) =     -9.96571  eV     1   --> A'             
     e(  5 -  5) =     -2.55937  eV     1   --> A'             
     e(  6 -  6) =     -2.48624  eV     1   --> A'             
     e(  7 -  7) =     -0.57532  eV     1   --> A'             
     e(  8 -  8) =     -0.33305  eV     1   --> A'             
     e(  9 -  9) =      2.32670  eV     1   --> A'             
     e( 10 - 10) =      2.73251  eV     1   --> A'             
     e( 11 - 11) =      3.77673  eV     1   --> A''            
     e( 12 - 12) =      3.78245  eV     1   --> A''            
     e( 13 - 13) =      3.78684  eV     1   --> A'             
     e( 14 - 14) =      3.79254  eV     1   --> A'             
     e( 15 - 15) =      3.80602  eV     1   --> A''            
     e( 16 - 16) =      3.81202  eV     1   --> A''            
     e( 17 - 17) =      3.81600  eV     1   --> A'             
     e( 18 - 18) =      3.82198  eV     1   --> A'             
     e( 19 - 19) =      7.12435  eV     1   --> A'             
     e( 20 - 20) =      8.21800  eV     1   --> A'             
     e( 21 - 21) =      9.69714  eV     1   --> A'             
     e( 22 - 22) =     10.22660  eV     1   --> A'             
     e( 23 - 23) =     10.24736  eV     1   --> A'             
     e( 24 - 24) =     10.33271  eV     1   --> A'             
     e( 25 - 25) =     10.48071  eV     1   --> A'             
     e( 26 - 26) =     11.10129  eV     1   --> A''            
     e( 27 - 27) =     11.10925  eV     1   --> A''            
     e( 28 - 28) =     11.12359  eV     1   --> A'             
     e( 29 - 29) =     11.13156  eV     1   --> A'             
     e( 30 - 30) =     11.42290  eV     1   --> A'             
     e( 31 - 31) =     11.64240  eV     1   --> A''            
     e( 32 - 32) =     11.65347  eV     1   --> A''            
     e( 33 - 33) =     11.66537  eV     1   --> A'             
     e( 34 - 34) =     11.67644  eV     1   --> A'             
     e( 35 - 35) =     13.63191  eV     1   --> A'             
     e( 36 - 36) =     14.09250  eV     1   --> A''            
     e( 37 - 37) =     14.11299  eV     1   --> A'             
     e( 38 - 38) =     14.13176  eV     1   --> A''            
     e( 39 - 39) =     14.15228  eV     1   --> A'             
     e( 40 - 40) =     14.51480  eV     1   --> A'             
     e( 41 - 41) =     15.50690  eV     1   --> A''            
     e( 42 - 42) =     15.52403  eV     1   --> A'             
     e( 43 - 43) =     15.61305  eV     1   --> A''            
     e( 44 - 44) =     15.63010  eV     1   --> A'             
     e( 45 - 45) =     15.94680  eV     1   --> A''            
     e( 46 - 46) =     15.96470  eV     1   --> A'             
     e( 47 - 47) =     16.00051  eV     1   --> A''            
     e( 48 - 48) =     16.01840  eV     1   --> A'             
     e( 49 - 49) =     16.62431  eV     1   --> A'             
     e( 50 - 50) =     16.91960  eV     1   --> A'             
     e( 51 - 51) =     18.18442  eV     1   --> A'             
     e( 52 - 52) =     18.28858  eV     1   --> A'             
     e( 53 - 53) =     18.35155  eV     1   --> A'             
     e( 54 - 54) =     18.59699  eV     1   --> A'             
     e( 55 - 55) =     18.71232  eV     1   --> A'             
     e( 56 - 56) =     19.25529  eV     1   --> A'             
     e( 57 - 57) =     19.65286  eV     1   --> A''            
     e( 58 - 58) =     19.67233  eV     1   --> A'             
     e( 59 - 59) =     19.78212  eV     1   --> A''            
     e( 60 - 60) =     19.80119  eV     1   --> A'             
     e( 61 - 61) =     20.72594  eV     1   --> A''            
     e( 62 - 62) =     20.74351  eV     1   --> A'             
     e( 63 - 63) =     20.74580  eV     1   --> A'             
     e( 64 - 64) =     21.06039  eV     1   --> A''            
     e( 65 - 65) =     21.07932  eV     1   --> A'             
     e( 66 - 66) =     21.27029  eV     1   --> A'             
     e( 67 - 67) =     21.95066  eV     1   --> A'             
     e( 68 - 68) =     22.44417  eV     1   --> A'             
     e( 69 - 69) =     23.97394  eV     1   --> A'             
     e( 70 - 70) =     24.02488  eV     1   --> A''            

 **************************************************************************

 **************************************************************************

                    xk=(   0.01925,   0.01108,   0.00000  )

     point group C_1 (1)    
     there are  1 classes
     the character table:

       E    
A      1.00

     the symmetry operations in each class and the name of the first element:

     E        1
                                                                 

     Band symmetry, C_1 (1)     point group:

     e(  1 -  1) =    -10.07680  eV     1   --> A              
     e(  2 -  2) =    -10.06311  eV     1   --> A              
     e(  3 -  3) =     -9.97564  eV     1   --> A              
     e(  4 -  4) =     -9.96091  eV     1   --> A              
     e(  5 -  5) =     -2.55370  eV     1   --> A              
     e(  6 -  6) =     -2.48061  eV     1   --> A              
     e(  7 -  7) =     -0.57047  eV     1   --> A              
     e(  8 -  8) =     -0.32839  eV     1   --> A              
     e(  9 -  9) =      2.32950  eV     1   --> A              
     e( 10 - 10) =      2.73458  eV     1   --> A              
     e( 11 - 11) =      3.75142  eV     1   --> A              
     e( 12 - 12) =      3.75734  eV     1   --> A              
     e( 13 - 13) =      3.77262  eV     1   --> A              
     e( 14 - 14) =      3.77823  eV     1   --> A              
     e( 15 - 15) =      3.77836  eV     1   --> A              
     e( 16 - 16) =      3.78492  eV     1   --> A              
     e( 17 - 17) =      3.80196  eV     1   --> A              
     e( 18 - 18) =      3.80799  eV     1   --> A              
     e( 19 - 19) =      7.13351  eV     1   --> A              
     e( 20 - 20) =      8.22496  eV     1   --> A              
     e( 21 - 21) =      9.69795  eV     1   --> A              
     e( 22 - 22) =     10.25417  eV     1   --> A              
     e( 23 - 23) =     10.27586  eV     1   --> A              
     e( 24 - 24) =     10.35804  eV     1   --> A              
     e( 25 - 25) =     10.50629  eV     1   --> A              
     e( 26 - 26) =     11.08679  eV     1   --> A              
     e( 27 - 27) =     11.09007  eV     1   --> A              
     e( 28 - 28) =     11.12111  eV     1   --> A              
     e( 29 - 29) =     11.12842  eV     1   --> A              
     e( 30 - 30) =     11.41692  eV     1   --> A              
     e( 31 - 31) =     11.64033  eV     1   --> A              
     e( 32 - 32) =     11.65084  eV     1   --> A              
     e( 33 - 33) =     11.66925  eV     1   --> A              
     e( 34 - 34) =     11.68007  eV     1   --> A              
     e( 35 - 35) =     13.64448  eV     1   --> A              
     e( 36 - 36) =     14.03588  eV     1   --> A              
     e( 37 - 37) =     14.07776  eV     1   --> A              
     e( 38 - 38) =     14.07884  eV     1   --> A              
     e( 39 - 39) =     14.11802  eV     1   --> A              
     e( 40 - 40) =     14.51584  eV     1   --> A              
     e( 41 - 41) =     15.48993  eV     1   --> A              
     e( 42 - 42) =     15.50511  eV     1   --> A              
     e( 43 - 43) =     15.54090  eV     1   --> A              
     e( 44 - 44) =     15.60667  eV     1   --> A              
     e( 45 - 45) =     15.97213  eV     1   --> A              
     e( 46 - 46) =     15.97926  eV     1   --> A              
     e( 47 - 47) =     16.00313  eV     1   --> A              
     e( 48 - 48) =     16.03648  eV     1   --> A              
     e( 49 - 49) =     16.71446  eV     1   --> A              
     e( 50 - 50) =     16.99212  eV     1   --> A              
     e( 51 - 51) =     18.22293  eV     1   --> A              
     e( 52 - 52) =     18.32490  eV     1   --> A              
     e( 53 - 53) =     18.36752  eV     1   --> A              
     e( 54 - 54) =     18.61767  eV     1   --> A              
     e( 55 - 55) =     18.75852  eV     1   --> A              
     e( 56 - 56) =     19.29524  eV     1   --> A              
     e( 57 - 57) =     19.64743  eV     1   --> A              
     e( 58 - 58) =     19.68067  eV     1   --> A              
     e( 59 - 59) =     19.78253  eV     1   --> A              
     e( 60 - 60) =     19.80979  eV     1   --> A              
     e( 61 - 61) =     20.64820  eV     1   --> A              
     e( 62 - 62) =     20.72253  eV     1   --> A              
     e( 63 - 63) =     20.77632  eV     1   --> A              
     e( 64 - 64) =     20.98716  eV     1   --> A              
     e( 65 - 65) =     21.06101  eV     1   --> A              
     e( 66 - 66) =     21.36453  eV     1   --> A              
     e( 67 - 67) =     21.96641  eV     1   --> A              
     e( 68 - 68) =     22.55151  eV     1   --> A              
     e( 69 - 69) =     23.79785  eV     1   --> A              
     e( 70 - 70) =     23.99490  eV     1   --> A              

 **************************************************************************

 **************************************************************************

                    xk=(   0.03850,   0.02217,   0.00000  )

     Band symmetry, C_1 (1)     point group:

     e(  1 -  1) =    -10.06211  eV     1   --> A              
     e(  2 -  2) =    -10.04843  eV     1   --> A              
     e(  3 -  3) =     -9.96126  eV     1   --> A              
     e(  4 -  4) =     -9.94655  eV     1   --> A              
     e(  5 -  5) =     -2.53674  eV     1   --> A              
     e(  6 -  6) =     -2.46376  eV     1   --> A              
     e(  7 -  7) =     -0.55595  eV     1   --> A              
     e(  8 -  8) =     -0.31445  eV     1   --> A              
     e(  9 -  9) =      2.33757  eV     1   --> A              
     e( 10 - 10) =      2.74030  eV     1   --> A              
     e( 11 - 11) =      3.65919  eV     1   --> A              
     e( 12 - 12) =      3.66593  eV     1   --> A              
     e( 13 - 13) =      3.67868  eV     1   --> A              
     e( 14 - 14) =      3.68724  eV     1   --> A              
     e( 15 - 15) =      3.74904  eV     1   --> A              
     e( 16 - 16) =      3.75481  eV     1   --> A              
     e( 17 - 17) =      3.77914  eV     1   --> A              
     e( 18 - 18) =      3.78520  eV     1   --> A              
     e( 19 - 19) =      7.16008  eV     1   --> A              
     e( 20 - 20) =      8.24461  eV     1   --> A              
     e( 21 - 21) =      9.69861  eV     1   --> A              
     e( 22 - 22) =     10.33239  eV     1   --> A              
     e( 23 - 23) =     10.35568  eV     1   --> A              
     e( 24 - 24) =     10.42936  eV     1   --> A              
     e( 25 - 25) =     10.57885  eV     1   --> A              
     e( 26 - 26) =     10.99075  eV     1   --> A              
     e( 27 - 27) =     11.01610  eV     1   --> A              
     e( 28 - 28) =     11.15252  eV     1   --> A              
     e( 29 - 29) =     11.15986  eV     1   --> A              
     e( 30 - 30) =     11.39670  eV     1   --> A              
     e( 31 - 31) =     11.60009  eV     1   --> A              
     e( 32 - 32) =     11.60826  eV     1   --> A              
     e( 33 - 33) =     11.72098  eV     1   --> A              
     e( 34 - 34) =     11.72944  eV     1   --> A              
     e( 35 - 35) =     13.66338  eV     1   --> A              
     e( 36 - 36) =     13.86634  eV     1   --> A              
     e( 37 - 37) =     13.91912  eV     1   --> A              
     e( 38 - 38) =     14.00648  eV     1   --> A              
     e( 39 - 39) =     14.05656  eV     1   --> A              
     e( 40 - 40) =     14.50477  eV     1   --> A              
     e( 41 - 41) =     15.33342  eV     1   --> A              
     e( 42 - 42) =     15.42796  eV     1   --> A              
     e( 43 - 43) =     15.46378  eV     1   --> A              
     e( 44 - 44) =     15.57128  eV     1   --> A              
     e( 45 - 45) =     15.89267  eV     1   --> A              
     e( 46 - 46) =     16.05454  eV     1   --> A              
     e( 47 - 47) =     16.11145  eV     1   --> A              
     e( 48 - 48) =     16.12321  eV     1   --> A              
     e( 49 - 49) =     16.93974  eV     1   --> A              
     e( 50 - 50) =     17.16492  eV     1   --> A              
     e( 51 - 51) =     18.33461  eV     1   --> A              
     e( 52 - 52) =     18.41161  eV     1   --> A              
     e( 53 - 53) =     18.43257  eV     1   --> A              
     e( 54 - 54) =     18.67810  eV     1   --> A              
     e( 55 - 55) =     18.88814  eV     1   --> A              
     e( 56 - 56) =     19.40141  eV     1   --> A              
     e( 57 - 57) =     19.60320  eV     1   --> A              
     e( 58 - 58) =     19.73669  eV     1   --> A              
     e( 59 - 59) =     19.75434  eV     1   --> A              
     e( 60 - 60) =     19.86758  eV     1   --> A              
     e( 61 - 61) =     20.47131  eV     1   --> A              
     e( 62 - 62) =     20.69606  eV     1   --> A              
     e( 63 - 63) =     20.79870  eV     1   --> A              
     e( 64 - 64) =     20.86925  eV     1   --> A              
     e( 65 - 65) =     21.04711  eV     1   --> A              
     e( 66 - 66) =     21.55891  eV     1   --> A              
     e( 67 - 67) =     22.01128  eV     1   --> A              
     e( 68 - 68) =     22.81114  eV     1   --> A              
     e( 69 - 69) =     23.52313  eV     1   --> A              
     e( 70 - 70) =     23.88033  eV     1   --> A              

 **************************************************************************

 **************************************************************************

                    xk=(   0.05775,   0.03325,   0.00000  )

     Band symmetry, C_1 (1)     point group:

     e(  1 -  1) =    -10.03770  eV     1   --> A              
     e(  2 -  2) =    -10.02403  eV     1   --> A              
     e(  3 -  3) =     -9.93737  eV     1   --> A              
     e(  4 -  4) =     -9.92268  eV     1   --> A              
     e(  5 -  5) =     -2.50853  eV     1   --> A              
     e(  6 -  6) =     -2.43575  eV     1   --> A              
     e(  7 -  7) =     -0.53187  eV     1   --> A              
     e(  8 -  8) =     -0.29135  eV     1   --> A              
     e(  9 -  9) =      2.34970  eV     1   --> A              
     e( 10 - 10) =      2.74767  eV     1   --> A              
     e( 11 - 11) =      3.51246  eV     1   --> A              
     e( 12 - 12) =      3.52045  eV     1   --> A              
     e( 13 - 13) =      3.52306  eV     1   --> A              
     e( 14 - 14) =      3.53272  eV     1   --> A              
     e( 15 - 15) =      3.71059  eV     1   --> A              
     e( 16 - 16) =      3.71644  eV     1   --> A              
     e( 17 - 17) =      3.74187  eV     1   --> A              
     e( 18 - 18) =      3.74799  eV     1   --> A              
     e( 19 - 19) =      7.20186  eV     1   --> A              
     e( 20 - 20) =      8.27395  eV     1   --> A              
     e( 21 - 21) =      9.69485  eV     1   --> A              
     e( 22 - 22) =     10.44677  eV     1   --> A              
     e( 23 - 23) =     10.46900  eV     1   --> A              
     e( 24 - 24) =     10.53326  eV     1   --> A              
     e( 25 - 25) =     10.68614  eV     1   --> A              
     e( 26 - 26) =     10.84430  eV     1   --> A              
     e( 27 - 27) =     10.90421  eV     1   --> A              
     e( 28 - 28) =     11.20942  eV     1   --> A              
     e( 29 - 29) =     11.21473  eV     1   --> A              
     e( 30 - 30) =     11.35767  eV     1   --> A              
     e( 31 - 31) =     11.53745  eV     1   --> A              
     e( 32 - 32) =     11.53974  eV     1   --> A              
     e( 33 - 33) =     11.82018  eV     1   --> A              
     e( 34 - 34) =     11.82134  eV     1   --> A              
     e( 35 - 35) =     13.57024  eV     1   --> A              
     e( 36 - 36) =     13.65076  eV     1   --> A              
     e( 37 - 37) =     13.80554  eV     1   --> A              
     e( 38 - 38) =     13.88407  eV     1   --> A              
     e( 39 - 39) =     13.97738  eV     1   --> A              
     e( 40 - 40) =     14.48061  eV     1   --> A              
     e( 41 - 41) =     15.06776  eV     1   --> A              
     e( 42 - 42) =     15.33155  eV     1   --> A              
     e( 43 - 43) =     15.40051  eV     1   --> A              
     e( 44 - 44) =     15.51210  eV     1   --> A              
     e( 45 - 45) =     15.81889  eV     1   --> A              
     e( 46 - 46) =     16.14437  eV     1   --> A              
     e( 47 - 47) =     16.20434  eV     1   --> A              
     e( 48 - 48) =     16.31609  eV     1   --> A              
     e( 49 - 49) =     17.24309  eV     1   --> A              
     e( 50 - 50) =     17.37191  eV     1   --> A              
     e( 51 - 51) =     18.47204  eV     1   --> A              
     e( 52 - 52) =     18.50761  eV     1   --> A              
     e( 53 - 53) =     18.60658  eV     1   --> A              
     e( 54 - 54) =     18.77110  eV     1   --> A              
     e( 55 - 55) =     19.07486  eV     1   --> A              
     e( 56 - 56) =     19.52949  eV     1   --> A              
     e( 57 - 57) =     19.54851  eV     1   --> A              
     e( 58 - 58) =     19.71442  eV     1   --> A              
     e( 59 - 59) =     19.81883  eV     1   --> A              
     e( 60 - 60) =     19.96442  eV     1   --> A              
     e( 61 - 61) =     20.30047  eV     1   --> A              
     e( 62 - 62) =     20.62311  eV     1   --> A              
     e( 63 - 63) =     20.66213  eV     1   --> A              
     e( 64 - 64) =     21.00906  eV     1   --> A              
     e( 65 - 65) =     21.03224  eV     1   --> A              
     e( 66 - 66) =     21.78691  eV     1   --> A              
     e( 67 - 67) =     22.07875  eV     1   --> A              
     e( 68 - 68) =     23.13828  eV     1   --> A              
     e( 69 - 69) =     23.21125  eV     1   --> A              
     e( 70 - 70) =     23.68213  eV     1   --> A              

 **************************************************************************

 **************************************************************************

                    xk=(   0.07701,   0.04434,   0.00000  )

     Band symmetry, C_1 (1)     point group:

     e(  1 -  1) =    -10.00367  eV     1   --> A              
     e(  2 -  2) =     -9.99002  eV     1   --> A              
     e(  3 -  3) =     -9.90407  eV     1   --> A              
     e(  4 -  4) =     -9.88941  eV     1   --> A              
     e(  5 -  5) =     -2.46923  eV     1   --> A              
     e(  6 -  6) =     -2.39672  eV     1   --> A              
     e(  7 -  7) =     -0.49840  eV     1   --> A              
     e(  8 -  8) =     -0.25930  eV     1   --> A              
     e(  9 -  9) =      2.36301  eV     1   --> A              
     e( 10 - 10) =      2.75088  eV     1   --> A              
     e( 11 - 11) =      3.31258  eV     1   --> A              
     e( 12 - 12) =      3.32647  eV     1   --> A              
     e( 13 - 13) =      3.33101  eV     1   --> A              
     e( 14 - 14) =      3.34552  eV     1   --> A              
     e( 15 - 15) =      3.65641  eV     1   --> A              
     e( 16 - 16) =      3.66240  eV     1   --> A              
     e( 17 - 17) =      3.68941  eV     1   --> A              
     e( 18 - 18) =      3.69565  eV     1   --> A              
     e( 19 - 19) =      7.25634  eV     1   --> A              
     e( 20 - 20) =      8.30946  eV     1   --> A              
     e( 21 - 21) =      9.68082  eV     1   --> A              
     e( 22 - 22) =     10.55357  eV     1   --> A              
     e( 23 - 23) =     10.56552  eV     1   --> A              
     e( 24 - 24) =     10.64951  eV     1   --> A              
     e( 25 - 25) =     10.70698  eV     1   --> A              
     e( 26 - 26) =     10.78101  eV     1   --> A              
     e( 27 - 27) =     10.80867  eV     1   --> A              
     e( 28 - 28) =     11.28307  eV     1   --> A              
     e( 29 - 29) =     11.28942  eV     1   --> A              
     e( 30 - 30) =     11.29550  eV     1   --> A              
     e( 31 - 31) =     11.45794  eV     1   --> A              
     e( 32 - 32) =     11.46856  eV     1   --> A              
     e( 33 - 33) =     11.95820  eV     1   --> A              
     e( 34 - 34) =     11.97173  eV     1   --> A              
     e( 35 - 35) =     13.33720  eV     1   --> A              
     e( 36 - 36) =     13.42665  eV     1   --> A              
     e( 37 - 37) =     13.72273  eV     1   --> A              
     e( 38 - 38) =     13.74043  eV     1   --> A              
     e( 39 - 39) =     13.95342  eV     1   --> A              
     e( 40 - 40) =     14.45448  eV     1   --> A              
     e( 41 - 41) =     14.78430  eV     1   --> A              
     e( 42 - 42) =     15.21864  eV     1   --> A              
     e( 43 - 43) =     15.31236  eV     1   --> A              
     e( 44 - 44) =     15.42813  eV     1   --> A              
     e( 45 - 45) =     15.76860  eV     1   --> A              
     e( 46 - 46) =     16.23020  eV     1   --> A              
     e( 47 - 47) =     16.29725  eV     1   --> A              
     e( 48 - 48) =     16.55905  eV     1   --> A              
     e( 49 - 49) =     17.57636  eV     1   --> A              
     e( 50 - 50) =     17.59252  eV     1   --> A              
     e( 51 - 51) =     18.52925  eV     1   --> A              
     e( 52 - 52) =     18.71745  eV     1   --> A              
     e( 53 - 53) =     18.83375  eV     1   --> A              
     e( 54 - 54) =     18.87450  eV     1   --> A              
     e( 55 - 55) =     19.27667  eV     1   --> A              
     e( 56 - 56) =     19.51322  eV     1   --> A              
     e( 57 - 57) =     19.61160  eV     1   --> A              
     e( 58 - 58) =     19.68106  eV     1   --> A              
     e( 59 - 59) =     19.91030  eV     1   --> A              
     e( 60 - 60) =     20.09339  eV     1   --> A              
     e( 61 - 61) =     20.17786  eV     1   --> A              
     e( 62 - 62) =     20.55624  eV     1   --> A              
     e( 63 - 63) =     20.64838  eV     1   --> A              
     e( 64 - 64) =     21.03808  eV     1   --> A              
     e( 65 - 65) =     21.17554  eV     1   --> A              
     e( 66 - 66) =     22.03590  eV     1   --> A              
     e( 67 - 67) =     22.15912  eV     1   --> A              
     e( 68 - 68) =     22.90300  eV     1   --> A              
     e( 69 - 69) =     23.41739  eV     1   --> A              
     e( 70 - 70) =     23.48882  eV     1   --> A              

 **************************************************************************

 **************************************************************************

                    xk=(   0.09626,   0.05542,   0.00000  )

     Band symmetry, C_1 (1)     point group:

     e(  1 -  1) =     -9.96017  eV     1   --> A              
     e(  2 -  2) =     -9.94656  eV     1   --> A              
     e(  3 -  3) =     -9.86151  eV     1   --> A              
     e(  4 -  4) =     -9.84689  eV     1   --> A              
     e(  5 -  5) =     -2.41900  eV     1   --> A              
     e(  6 -  6) =     -2.34688  eV     1   --> A              
     e(  7 -  7) =     -0.45580  eV     1   --> A              
     e(  8 -  8) =     -0.21862  eV     1   --> A              
     e(  9 -  9) =      2.37027  eV     1   --> A              
     e( 10 - 10) =      2.73075  eV     1   --> A              
     e( 11 - 11) =      3.07135  eV     1   --> A              
     e( 12 - 12) =      3.08907  eV     1   --> A              
     e( 13 - 13) =      3.12150  eV     1   --> A              
     e( 14 - 14) =      3.15874  eV     1   --> A              
     e( 15 - 15) =      3.58608  eV     1   --> A              
     e( 16 - 16) =      3.59227  eV     1   --> A              
     e( 17 - 17) =      3.62145  eV     1   --> A              
     e( 18 - 18) =      3.62785  eV     1   --> A              
     e( 19 - 19) =      7.32144  eV     1   --> A              
     e( 20 - 20) =      8.34813  eV     1   --> A              
     e( 21 - 21) =      9.64876  eV     1   --> A              
     e( 22 - 22) =     10.40572  eV     1   --> A              
     e( 23 - 23) =     10.55653  eV     1   --> A              
     e( 24 - 24) =     10.75338  eV     1   --> A              
     e( 25 - 25) =     10.77326  eV     1   --> A              
     e( 26 - 26) =     10.77659  eV     1   --> A              
     e( 27 - 27) =     10.92006  eV     1   --> A              
     e( 28 - 28) =     11.20956  eV     1   --> A              
     e( 29 - 29) =     11.34382  eV     1   --> A              
     e( 30 - 30) =     11.37687  eV     1   --> A              
     e( 31 - 31) =     11.38147  eV     1   --> A              
     e( 32 - 32) =     11.40950  eV     1   --> A              
     e( 33 - 33) =     12.13983  eV     1   --> A              
     e( 34 - 34) =     12.17849  eV     1   --> A              
     e( 35 - 35) =     13.10259  eV     1   --> A              
     e( 36 - 36) =     13.21387  eV     1   --> A              
     e( 37 - 37) =     13.56129  eV     1   --> A              
     e( 38 - 38) =     13.62830  eV     1   --> A              
     e( 39 - 39) =     13.99683  eV     1   --> A              
     e( 40 - 40) =     14.42996  eV     1   --> A              
     e( 41 - 41) =     14.50804  eV     1   --> A              
     e( 42 - 42) =     15.10209  eV     1   --> A              
     e( 43 - 43) =     15.20291  eV     1   --> A              
     e( 44 - 44) =     15.32011  eV     1   --> A              
     e( 45 - 45) =     15.74484  eV     1   --> A              
     e( 46 - 46) =     16.29943  eV     1   --> A              
     e( 47 - 47) =     16.38039  eV     1   --> A              
     e( 48 - 48) =     16.82949  eV     1   --> A              
     e( 49 - 49) =     17.76402  eV     1   --> A              
     e( 50 - 50) =     17.96896  eV     1   --> A              
     e( 51 - 51) =     18.56174  eV     1   --> A              
     e( 52 - 52) =     18.90953  eV     1   --> A              
     e( 53 - 53) =     18.93285  eV     1   --> A              
     e( 54 - 54) =     19.07778  eV     1   --> A              
     e( 55 - 55) =     19.45282  eV     1   --> A              
     e( 56 - 56) =     19.55101  eV     1   --> A              
     e( 57 - 57) =     19.65443  eV     1   --> A              
     e( 58 - 58) =     19.69065  eV     1   --> A              
     e( 59 - 59) =     19.99624  eV     1   --> A              
     e( 60 - 60) =     20.09656  eV     1   --> A              
     e( 61 - 61) =     20.24503  eV     1   --> A              
     e( 62 - 62) =     20.58934  eV     1   --> A              
     e( 63 - 63) =     20.72347  eV     1   --> A              
     e( 64 - 64) =     21.12788  eV     1   --> A              
     e( 65 - 65) =     21.32961  eV     1   --> A              
     e( 66 - 66) =     22.23962  eV     1   --> A              
     e( 67 - 67) =     22.30287  eV     1   --> A              
     e( 68 - 68) =     22.64789  eV     1   --> A              
     e( 69 - 69) =     23.11381  eV     1   --> A              
     e( 70 - 70) =     23.76233  eV     1   --> A              

 **************************************************************************

 **************************************************************************

                    xk=(   0.11551,   0.06651,   0.00000  )

     Band symmetry, C_1 (1)     point group:

     e(  1 -  1) =     -9.90740  eV     1   --> A              
     e(  2 -  2) =     -9.89383  eV     1   --> A              
     e(  3 -  3) =     -9.80990  eV     1   --> A              
     e(  4 -  4) =     -9.79534  eV     1   --> A              
     e(  5 -  5) =     -2.35812  eV     1   --> A              
     e(  6 -  6) =     -2.28650  eV     1   --> A              
     e(  7 -  7) =     -0.40444  eV     1   --> A              
     e(  8 -  8) =     -0.16977  eV     1   --> A              
     e(  9 -  9) =      2.35150  eV     1   --> A              
     e( 10 - 10) =      2.63249  eV     1   --> A              
     e( 11 - 11) =      2.80379  eV     1   --> A              
     e( 12 - 12) =      2.82472  eV     1   --> A              
     e( 13 - 13) =      2.91961  eV     1   --> A              
     e( 14 - 14) =      3.02992  eV     1   --> A              
     e( 15 - 15) =      3.49926  eV     1   --> A              
     e( 16 - 16) =      3.50575  eV     1   --> A              
     e( 17 - 17) =      3.53774  eV     1   --> A              
     e( 18 - 18) =      3.54436  eV     1   --> A              
     e( 19 - 19) =      7.39575  eV     1   --> A              
     e( 20 - 20) =      8.38768  eV     1   --> A              
     e( 21 - 21) =      9.58913  eV     1   --> A              
     e( 22 - 22) =     10.18449  eV     1   --> A              
     e( 23 - 23) =     10.41997  eV     1   --> A              
     e( 24 - 24) =     10.81804  eV     1   --> A              
     e( 25 - 25) =     10.88091  eV     1   --> A              
     e( 26 - 26) =     10.89121  eV     1   --> A              
     e( 27 - 27) =     10.98200  eV     1   --> A              
     e( 28 - 28) =     11.10746  eV     1   --> A              
     e( 29 - 29) =     11.34546  eV     1   --> A              
     e( 30 - 30) =     11.34958  eV     1   --> A              
     e( 31 - 31) =     11.37801  eV     1   --> A              
     e( 32 - 32) =     11.44644  eV     1   --> A              
     e( 33 - 33) =     12.35130  eV     1   --> A              
     e( 34 - 34) =     12.43594  eV     1   --> A              
     e( 35 - 35) =     12.90547  eV     1   --> A              
     e( 36 - 36) =     13.00737  eV     1   --> A              
     e( 37 - 37) =     13.46456  eV     1   --> A              
     e( 38 - 38) =     13.55280  eV     1   --> A              
     e( 39 - 39) =     14.05147  eV     1   --> A              
     e( 40 - 40) =     14.26338  eV     1   --> A              
     e( 41 - 41) =     14.40740  eV     1   --> A              
     e( 42 - 42) =     14.98175  eV     1   --> A              
     e( 43 - 43) =     15.08957  eV     1   --> A              
     e( 44 - 44) =     15.19118  eV     1   --> A              
     e( 45 - 45) =     15.74456  eV     1   --> A              
     e( 46 - 46) =     16.34380  eV     1   --> A              
     e( 47 - 47) =     16.44663  eV     1   --> A              
     e( 48 - 48) =     17.10414  eV     1   --> A              
     e( 49 - 49) =     17.93111  eV     1   --> A              
     e( 50 - 50) =     18.35685  eV     1   --> A              
     e( 51 - 51) =     18.56527  eV     1   --> A              
     e( 52 - 52) =     18.89255  eV     1   --> A              
     e( 53 - 53) =     19.00560  eV     1   --> A              
     e( 54 - 54) =     19.24927  eV     1   --> A              
     e( 55 - 55) =     19.60715  eV     1   --> A              
     e( 56 - 56) =     19.73208  eV     1   --> A              
     e( 57 - 57) =     19.76919  eV     1   --> A              
     e( 58 - 58) =     19.82873  eV     1   --> A              
     e( 59 - 59) =     19.99798  eV     1   --> A              
     e( 60 - 60) =     20.06482  eV     1   --> A              
     e( 61 - 61) =     20.40527  eV     1   --> A              
     e( 62 - 62) =     20.59830  eV     1   --> A              
     e( 63 - 63) =     20.95198  eV     1   --> A              
     e( 64 - 64) =     21.37189  eV     1   --> A              
     e( 65 - 65) =     21.39675  eV     1   --> A              
     e( 66 - 66) =     22.30402  eV     1   --> A              
     e( 67 - 67) =     22.50768  eV     1   --> A              
     e( 68 - 68) =     22.58074  eV     1   --> A              
     e( 69 - 69) =     22.81731  eV     1   --> A              
     e( 70 - 70) =     23.63159  eV     1   --> A              

 **************************************************************************

 **************************************************************************

                    xk=(   0.13476,   0.07759,   0.00000  )

     Band symmetry, C_1 (1)     point group:

     e(  1 -  1) =     -9.84562  eV     1   --> A              
     e(  2 -  2) =     -9.83210  eV     1   --> A              
     e(  3 -  3) =     -9.74949  eV     1   --> A              
     e(  4 -  4) =     -9.73500  eV     1   --> A              
     e(  5 -  5) =     -2.28694  eV     1   --> A              
     e(  6 -  6) =     -2.21597  eV     1   --> A              
     e(  7 -  7) =     -0.34487  eV     1   --> A              
     e(  8 -  8) =     -0.11345  eV     1   --> A              
     e(  9 -  9) =      2.26034  eV     1   --> A              
     e( 10 - 10) =      2.42635  eV     1   --> A              
     e( 11 - 11) =      2.51907  eV     1   --> A              
     e( 12 - 12) =      2.54327  eV     1   --> A              
     e( 13 - 13) =      2.77897  eV     1   --> A              
     e( 14 - 14) =      2.99636  eV     1   --> A              
     e( 15 - 15) =      3.39578  eV     1   --> A              
     e( 16 - 16) =      3.40276  eV     1   --> A              
     e( 17 - 17) =      3.43817  eV     1   --> A              
     e( 18 - 18) =      3.44507  eV     1   --> A              
     e( 19 - 19) =      7.47831  eV     1   --> A              
     e( 20 - 20) =      8.42640  eV     1   --> A              
     e( 21 - 21) =      9.49363  eV     1   --> A              
     e( 22 - 22) =      9.95001  eV     1   --> A              
     e( 23 - 23) =     10.27331  eV     1   --> A              
     e( 24 - 24) =     10.81647  eV     1   --> A              
     e( 25 - 25) =     10.96392  eV     1   --> A              
     e( 26 - 26) =     10.98426  eV     1   --> A              
     e( 27 - 27) =     10.99041  eV     1   --> A              
     e( 28 - 28) =     11.00117  eV     1   --> A              
     e( 29 - 29) =     11.27276  eV     1   --> A              
     e( 30 - 30) =     11.38410  eV     1   --> A              
     e( 31 - 31) =     11.39272  eV     1   --> A              
     e( 32 - 32) =     11.47337  eV     1   --> A              
     e( 33 - 33) =     12.55159  eV     1   --> A              
     e( 34 - 34) =     12.72934  eV     1   --> A              
     e( 35 - 35) =     12.73181  eV     1   --> A              
     e( 36 - 36) =     12.78966  eV     1   --> A              
     e( 37 - 37) =     13.48831  eV     1   --> A              
     e( 38 - 38) =     13.59020  eV     1   --> A              
     e( 39 - 39) =     14.08702  eV     1   --> A              
     e( 40 - 40) =     14.10340  eV     1   --> A              
     e( 41 - 41) =     14.39276  eV     1   --> A              
     e( 42 - 42) =     14.83561  eV     1   --> A              
     e( 43 - 43) =     15.01348  eV     1   --> A              
     e( 44 - 44) =     15.04896  eV     1   --> A              
     e( 45 - 45) =     15.76260  eV     1   --> A              
     e( 46 - 46) =     16.35762  eV     1   --> A              
     e( 47 - 47) =     16.49060  eV     1   --> A              
     e( 48 - 48) =     17.35590  eV     1   --> A              
     e( 49 - 49) =     18.07910  eV     1   --> A              
     e( 50 - 50) =     18.56725  eV     1   --> A              
     e( 51 - 51) =     18.64595  eV     1   --> A              
     e( 52 - 52) =     18.89224  eV     1   --> A              
     e( 53 - 53) =     19.01389  eV     1   --> A              
     e( 54 - 54) =     19.30116  eV     1   --> A              
     e( 55 - 55) =     19.77326  eV     1   --> A              
     e( 56 - 56) =     19.86283  eV     1   --> A              
     e( 57 - 57) =     19.96908  eV     1   --> A              
     e( 58 - 58) =     20.00398  eV     1   --> A              
     e( 59 - 59) =     20.13169  eV     1   --> A              
     e( 60 - 60) =     20.13580  eV     1   --> A              
     e( 61 - 61) =     20.55532  eV     1   --> A              
     e( 62 - 62) =     20.56452  eV     1   --> A              
     e( 63 - 63) =     21.30763  eV     1   --> A              
     e( 64 - 64) =     21.32536  eV     1   --> A              
     e( 65 - 65) =     21.73743  eV     1   --> A              
     e( 66 - 66) =     22.33688  eV     1   --> A              
     e( 67 - 67) =     22.36545  eV     1   --> A              
     e( 68 - 68) =     22.72947  eV     1   --> A              
     e( 69 - 69) =     22.84976  eV     1   --> A              
     e( 70 - 70) =     23.54296  eV     1   --> A              

 **************************************************************************

 **************************************************************************

                    xk=(   0.15401,   0.08868,   0.00000  )

     Band symmetry, C_1 (1)     point group:

     e(  1 -  1) =     -9.77514  eV     1   --> A              
     e(  2 -  2) =     -9.76167  eV     1   --> A              
     e(  3 -  3) =     -9.68061  eV     1   --> A              
     e(  4 -  4) =     -9.66619  eV     1   --> A              
     e(  5 -  5) =     -2.20597  eV     1   --> A              
     e(  6 -  6) =     -2.13583  eV     1   --> A              
     e(  7 -  7) =     -0.27783  eV     1   --> A              
     e(  8 -  8) =     -0.05067  eV     1   --> A              
     e(  9 -  9) =      2.06883  eV     1   --> A              
     e( 10 - 10) =      2.16610  eV     1   --> A              
     e( 11 - 11) =      2.22465  eV     1   --> A              
     e( 12 - 12) =      2.25251  eV     1   --> A              
     e( 13 - 13) =      2.73410  eV     1   --> A              
     e( 14 - 14) =      3.01050  eV     1   --> A              
     e( 15 - 15) =      3.27572  eV     1   --> A              
     e( 16 - 16) =      3.28372  eV     1   --> A              
     e( 17 - 17) =      3.32284  eV     1   --> A              
     e( 18 - 18) =      3.33008  eV     1   --> A              
     e( 19 - 19) =      7.56835  eV     1   --> A              
     e( 20 - 20) =      8.46275  eV     1   --> A              
     e( 21 - 21) =      9.36014  eV     1   --> A              
     e( 22 - 22) =      9.71011  eV     1   --> A              
     e( 23 - 23) =     10.12372  eV     1   --> A              
     e( 24 - 24) =     10.74453  eV     1   --> A              
     e( 25 - 25) =     10.89795  eV     1   --> A              
     e( 26 - 26) =     10.90251  eV     1   --> A              
     e( 27 - 27) =     10.95624  eV     1   --> A              
     e( 28 - 28) =     11.08981  eV     1   --> A              
     e( 29 - 29) =     11.21990  eV     1   --> A              
     e( 30 - 30) =     11.45476  eV     1   --> A              
     e( 31 - 31) =     11.46654  eV     1   --> A              
     e( 32 - 32) =     11.47266  eV     1   --> A              
     e( 33 - 33) =     12.55215  eV     1   --> A              
     e( 34 - 34) =     12.56450  eV     1   --> A              
     e( 35 - 35) =     12.66953  eV     1   --> A              
     e( 36 - 36) =     13.03394  eV     1   --> A              
     e( 37 - 37) =     13.60994  eV     1   --> A              
     e( 38 - 38) =     13.74977  eV     1   --> A              
     e( 39 - 39) =     14.02987  eV     1   --> A              
     e( 40 - 40) =     14.16653  eV     1   --> A              
     e( 41 - 41) =     14.41126  eV     1   --> A              
     e( 42 - 42) =     14.66156  eV     1   --> A              
     e( 43 - 43) =     14.91235  eV     1   --> A              
     e( 44 - 44) =     15.00066  eV     1   --> A              
     e( 45 - 45) =     15.79347  eV     1   --> A              
     e( 46 - 46) =     16.33739  eV     1   --> A              
     e( 47 - 47) =     16.51000  eV     1   --> A              
     e( 48 - 48) =     17.55561  eV     1   --> A              
     e( 49 - 49) =     18.21063  eV     1   --> A              
     e( 50 - 50) =     18.57672  eV     1   --> A              
     e( 51 - 51) =     18.60833  eV     1   --> A              
     e( 52 - 52) =     18.98613  eV     1   --> A              
     e( 53 - 53) =     19.25310  eV     1   --> A              
     e( 54 - 54) =     19.30266  eV     1   --> A              
     e( 55 - 55) =     19.71089  eV     1   --> A              
     e( 56 - 56) =     19.96709  eV     1   --> A              
     e( 57 - 57) =     20.04905  eV     1   --> A              
     e( 58 - 58) =     20.17408  eV     1   --> A              
     e( 59 - 59) =     20.41894  eV     1   --> A              
     e( 60 - 60) =     20.52850  eV     1   --> A              
     e( 61 - 61) =     20.55333  eV     1   --> A              
     e( 62 - 62) =     20.67584  eV     1   --> A              
     e( 63 - 63) =     21.17629  eV     1   --> A              
     e( 64 - 64) =     21.73240  eV     1   --> A              
     e( 65 - 65) =     22.12357  eV     1   --> A              
     e( 66 - 66) =     22.16943  eV     1   --> A              
     e( 67 - 67) =     22.33952  eV     1   --> A              
     e( 68 - 68) =     22.92958  eV     1   --> A              
     e( 69 - 69) =     23.05860  eV     1   --> A              
     e( 70 - 70) =     23.51310  eV     1   --> A              

 **************************************************************************

 **************************************************************************

                    xk=(   0.17326,   0.09976,   0.00000  )

     Band symmetry, C_1 (1)     point group:

     e(  1 -  1) =     -9.69632  eV     1   --> A              
     e(  2 -  2) =     -9.68292  eV     1   --> A              
     e(  3 -  3) =     -9.60362  eV     1   --> A              
     e(  4 -  4) =     -9.58929  eV     1   --> A              
     e(  5 -  5) =     -2.11589  eV     1   --> A              
     e(  6 -  6) =     -2.04680  eV     1   --> A              
     e(  7 -  7) =     -0.20449  eV     1   --> A              
     e(  8 -  8) =      0.01693  eV     1   --> A              
     e(  9 -  9) =      1.81868  eV     1   --> A              
     e( 10 - 10) =      1.88733  eV     1   --> A              
     e( 11 - 11) =      1.92694  eV     1   --> A              
     e( 12 - 12) =      1.95934  eV     1   --> A              
     e( 13 - 13) =      2.74843  eV     1   --> A              
     e( 14 - 14) =      3.03907  eV     1   --> A              
     e( 15 - 15) =      3.13958  eV     1   --> A              
     e( 16 - 16) =      3.15199  eV     1   --> A              
     e( 17 - 17) =      3.19211  eV     1   --> A              
     e( 18 - 18) =      3.19975  eV     1   --> A              
     e( 19 - 19) =      7.66496  eV     1   --> A              
     e( 20 - 20) =      8.49512  eV     1   --> A              
     e( 21 - 21) =      9.19412  eV     1   --> A              
     e( 22 - 22) =      9.46746  eV     1   --> A              
     e( 23 - 23) =      9.96031  eV     1   --> A              
     e( 24 - 24) =     10.62349  eV     1   --> A              
     e( 25 - 25) =     10.74000  eV     1   --> A              
     e( 26 - 26) =     10.81653  eV     1   --> A              
     e( 27 - 27) =     10.82152  eV     1   --> A              
     e( 28 - 28) =     11.17412  eV     1   --> A              
     e( 29 - 29) =     11.29755  eV     1   --> A              
     e( 30 - 30) =     11.46551  eV     1   --> A              
     e( 31 - 31) =     11.54830  eV     1   --> A              
     e( 32 - 32) =     11.58024  eV     1   --> A              
     e( 33 - 33) =     12.34593  eV     1   --> A              
     e( 34 - 34) =     12.36736  eV     1   --> A              
     e( 35 - 35) =     12.65553  eV     1   --> A              
     e( 36 - 36) =     13.31170  eV     1   --> A              
     e( 37 - 37) =     13.72573  eV     1   --> A              
     e( 38 - 38) =     13.91013  eV     1   --> A              
     e( 39 - 39) =     14.08346  eV     1   --> A              
     e( 40 - 40) =     14.32431  eV     1   --> A              
     e( 41 - 41) =     14.47943  eV     1   --> A              
     e( 42 - 42) =     14.52807  eV     1   --> A              
     e( 43 - 43) =     14.83773  eV     1   --> A              
     e( 44 - 44) =     15.06470  eV     1   --> A              
     e( 45 - 45) =     15.83156  eV     1   --> A              
     e( 46 - 46) =     16.28274  eV     1   --> A              
     e( 47 - 47) =     16.50772  eV     1   --> A              
     e( 48 - 48) =     17.68894  eV     1   --> A              
     e( 49 - 49) =     18.32785  eV     1   --> A              
     e( 50 - 50) =     18.47232  eV     1   --> A              
     e( 51 - 51) =     18.70157  eV     1   --> A              
     e( 52 - 52) =     18.94009  eV     1   --> A              
     e( 53 - 53) =     19.29436  eV     1   --> A              
     e( 54 - 54) =     19.57527  eV     1   --> A              
     e( 55 - 55) =     19.68202  eV     1   --> A              
     e( 56 - 56) =     19.97593  eV     1   --> A              
     e( 57 - 57) =     20.18316  eV     1   --> A              
     e( 58 - 58) =     20.24515  eV     1   --> A              
     e( 59 - 59) =     20.69327  eV     1   --> A              
     e( 60 - 60) =     20.70513  eV     1   --> A              
     e( 61 - 61) =     20.72310  eV     1   --> A              
     e( 62 - 62) =     20.97570  eV     1   --> A              
     e( 63 - 63) =     21.03568  eV     1   --> A              
     e( 64 - 64) =     21.98546  eV     1   --> A              
     e( 65 - 65) =     22.17662  eV     1   --> A              
     e( 66 - 66) =     22.33836  eV     1   --> A              
     e( 67 - 67) =     22.63932  eV     1   --> A              
     e( 68 - 68) =     23.12018  eV     1   --> A              
     e( 69 - 69) =     23.21539  eV     1   --> A              
     e( 70 - 70) =     23.56738  eV     1   --> A              

 **************************************************************************

 **************************************************************************

                    xk=(   0.19251,   0.11085,   0.00000  )

     Band symmetry, C_1 (1)     point group:

     e(  1 -  1) =     -9.60963  eV     1   --> A              
     e(  2 -  2) =     -9.59630  eV     1   --> A              
     e(  3 -  3) =     -9.51899  eV     1   --> A              
     e(  4 -  4) =     -9.50476  eV     1   --> A              
     e(  5 -  5) =     -2.01763  eV     1   --> A              
     e(  6 -  6) =     -1.94991  eV     1   --> A              
     e(  7 -  7) =     -0.12676  eV     1   --> A              
     e(  8 -  8) =      0.08649  eV     1   --> A              
     e(  9 -  9) =      1.54807  eV     1   --> A              
     e( 10 - 10) =      1.60445  eV     1   --> A              
     e( 11 - 11) =      1.63192  eV     1   --> A              
     e( 12 - 12) =      1.67075  eV     1   --> A              
     e( 13 - 13) =      2.78713  eV     1   --> A              
     e( 14 - 14) =      2.98434  eV     1   --> A              
     e( 15 - 15) =      2.98909  eV     1   --> A              
     e( 16 - 16) =      3.04657  eV     1   --> A              
     e( 17 - 17) =      3.05458  eV     1   --> A              
     e( 18 - 18) =      3.09613  eV     1   --> A              
     e( 19 - 19) =      7.76684  eV     1   --> A              
     e( 20 - 20) =      8.52167  eV     1   --> A              
     e( 21 - 21) =      9.00410  eV     1   --> A              
     e( 22 - 22) =      9.22289  eV     1   --> A              
     e( 23 - 23) =      9.77338  eV     1   --> A              
     e( 24 - 24) =     10.46540  eV     1   --> A              
     e( 25 - 25) =     10.47628  eV     1   --> A              
     e( 26 - 26) =     10.74329  eV     1   --> A              
     e( 27 - 27) =     10.74955  eV     1   --> A              
     e( 28 - 28) =     11.23769  eV     1   --> A              
     e( 29 - 29) =     11.40948  eV     1   --> A              
     e( 30 - 30) =     11.50667  eV     1   --> A              
     e( 31 - 31) =     11.66051  eV     1   --> A              
     e( 32 - 32) =     11.69610  eV     1   --> A              
     e( 33 - 33) =     12.14709  eV     1   --> A              
     e( 34 - 34) =     12.19033  eV     1   --> A              
     e( 35 - 35) =     12.54627  eV     1   --> A              
     e( 36 - 36) =     13.50797  eV     1   --> A              
     e( 37 - 37) =     13.74081  eV     1   --> A              
     e( 38 - 38) =     13.94503  eV     1   --> A              
     e( 39 - 39) =     14.08828  eV     1   --> A              
     e( 40 - 40) =     14.32013  eV     1   --> A              
     e( 41 - 41) =     14.65471  eV     1   --> A              
     e( 42 - 42) =     14.79864  eV     1   --> A              
     e( 43 - 43) =     14.94776  eV     1   --> A              
     e( 44 - 44) =     15.22344  eV     1   --> A              
     e( 45 - 45) =     15.87084  eV     1   --> A              
     e( 46 - 46) =     16.19698  eV     1   --> A              
     e( 47 - 47) =     16.49394  eV     1   --> A              
     e( 48 - 48) =     17.77082  eV     1   --> A              
     e( 49 - 49) =     18.39804  eV     1   --> A              
     e( 50 - 50) =     18.43171  eV     1   --> A              
     e( 51 - 51) =     18.80431  eV     1   --> A              
     e( 52 - 52) =     18.87219  eV     1   --> A              
     e( 53 - 53) =     19.28728  eV     1   --> A              
     e( 54 - 54) =     19.49970  eV     1   --> A              
     e( 55 - 55) =     19.86333  eV     1   --> A              
     e( 56 - 56) =     20.10611  eV     1   --> A              
     e( 57 - 57) =     20.22205  eV     1   --> A              
     e( 58 - 58) =     20.41109  eV     1   --> A              
     e( 59 - 59) =     20.65470  eV     1   --> A              
     e( 60 - 60) =     20.71865  eV     1   --> A              
     e( 61 - 61) =     20.95567  eV     1   --> A              
     e( 62 - 62) =     21.08798  eV     1   --> A              
     e( 63 - 63) =     21.41035  eV     1   --> A              
     e( 64 - 64) =     22.08571  eV     1   --> A              
     e( 65 - 65) =     22.36773  eV     1   --> A              
     e( 66 - 66) =     22.55784  eV     1   --> A              
     e( 67 - 67) =     23.06630  eV     1   --> A              
     e( 68 - 68) =     23.13132  eV     1   --> A              
     e( 69 - 69) =     23.51759  eV     1   --> A              
     e( 70 - 70) =     23.66263  eV     1   --> A              

 **************************************************************************

 **************************************************************************

                    xk=(   0.21177,   0.12193,   0.00000  )

     Band symmetry, C_1 (1)     point group:

     e(  1 -  1) =     -9.51559  eV     1   --> A              
     e(  2 -  2) =     -9.50234  eV     1   --> A              
     e(  3 -  3) =     -9.42725  eV     1   --> A              
     e(  4 -  4) =     -9.41313  eV     1   --> A              
     e(  5 -  5) =     -1.91255  eV     1   --> A              
     e(  6 -  6) =     -1.84665  eV     1   --> A              
     e(  7 -  7) =     -0.04812  eV     1   --> A              
     e(  8 -  8) =      0.15242  eV     1   --> A              
     e(  9 -  9) =      1.27454  eV     1   --> A              
     e( 10 - 10) =      1.32560  eV     1   --> A              
     e( 11 - 11) =      1.34623  eV     1   --> A              
     e( 12 - 12) =      1.39548  eV     1   --> A              
     e( 13 - 13) =      2.79972  eV     1   --> A              
     e( 14 - 14) =      2.82270  eV     1   --> A              
     e( 15 - 15) =      2.86178  eV     1   --> A              
     e( 16 - 16) =      2.88732  eV     1   --> A              
     e( 17 - 17) =      2.89583  eV     1   --> A              
     e( 18 - 18) =      3.13613  eV     1   --> A              
     e( 19 - 19) =      7.87192  eV     1   --> A              
     e( 20 - 20) =      8.54026  eV     1   --> A              
     e( 21 - 21) =      8.79743  eV     1   --> A              
     e( 22 - 22) =      8.97642  eV     1   --> A              
     e( 23 - 23) =      9.56223  eV     1   --> A              
     e( 24 - 24) =     10.17543  eV     1   --> A              
     e( 25 - 25) =     10.31716  eV     1   --> A              
     e( 26 - 26) =     10.68357  eV     1   --> A              
     e( 27 - 27) =     10.68748  eV     1   --> A              
     e( 28 - 28) =     11.29017  eV     1   --> A              
     e( 29 - 29) =     11.53205  eV     1   --> A              
     e( 30 - 30) =     11.59213  eV     1   --> A              
     e( 31 - 31) =     11.78575  eV     1   --> A              
     e( 32 - 32) =     11.81496  eV     1   --> A              
     e( 33 - 33) =     11.97740  eV     1   --> A              
     e( 34 - 34) =     12.03428  eV     1   --> A              
     e( 35 - 35) =     12.40569  eV     1   --> A              
     e( 36 - 36) =     13.55642  eV     1   --> A              
     e( 37 - 37) =     13.66702  eV     1   --> A              
     e( 38 - 38) =     13.90145  eV     1   --> A              
     e( 39 - 39) =     13.96360  eV     1   --> A              
     e( 40 - 40) =     14.23728  eV     1   --> A              
     e( 41 - 41) =     15.07133  eV     1   --> A              
     e( 42 - 42) =     15.18238  eV     1   --> A              
     e( 43 - 43) =     15.26163  eV     1   --> A              
     e( 44 - 44) =     15.48084  eV     1   --> A              
     e( 45 - 45) =     15.90765  eV     1   --> A              
     e( 46 - 46) =     16.08724  eV     1   --> A              
     e( 47 - 47) =     16.48629  eV     1   --> A              
     e( 48 - 48) =     17.82561  eV     1   --> A              
     e( 49 - 49) =     18.35920  eV     1   --> A              
     e( 50 - 50) =     18.52189  eV     1   --> A              
     e( 51 - 51) =     18.77309  eV     1   --> A              
     e( 52 - 52) =     18.85095  eV     1   --> A              
     e( 53 - 53) =     19.28355  eV     1   --> A              
     e( 54 - 54) =     19.53401  eV     1   --> A              
     e( 55 - 55) =     19.75376  eV     1   --> A              
     e( 56 - 56) =     20.14103  eV     1   --> A              
     e( 57 - 57) =     20.38963  eV     1   --> A              
     e( 58 - 58) =     20.57424  eV     1   --> A              
     e( 59 - 59) =     20.63109  eV     1   --> A              
     e( 60 - 60) =     20.65796  eV     1   --> A              
     e( 61 - 61) =     21.19759  eV     1   --> A              
     e( 62 - 62) =     21.24525  eV     1   --> A              
     e( 63 - 63) =     21.79665  eV     1   --> A              
     e( 64 - 64) =     22.42503  eV     1   --> A              
     e( 65 - 65) =     22.45304  eV     1   --> A              
     e( 66 - 66) =     22.65351  eV     1   --> A              
     e( 67 - 67) =     23.10158  eV     1   --> A              
     e( 68 - 68) =     23.62962  eV     1   --> A              
     e( 69 - 69) =     23.63313  eV     1   --> A              
     e( 70 - 70) =     23.79590  eV     1   --> A              

 **************************************************************************

 **************************************************************************

                    xk=(   0.23102,   0.13302,   0.00000  )

     Band symmetry, C_1 (1)     point group:

     e(  1 -  1) =     -9.41483  eV     1   --> A              
     e(  2 -  2) =     -9.40167  eV     1   --> A              
     e(  3 -  3) =     -9.32903  eV     1   --> A              
     e(  4 -  4) =     -9.31503  eV     1   --> A              
     e(  5 -  5) =     -1.80263  eV     1   --> A              
     e(  6 -  6) =     -1.73915  eV     1   --> A              
     e(  7 -  7) =      0.02401  eV     1   --> A              
     e(  8 -  8) =      0.20242  eV     1   --> A              
     e(  9 -  9) =      1.00772  eV     1   --> A              
     e( 10 - 10) =      1.05716  eV     1   --> A              
     e( 11 - 11) =      1.07964  eV     1   --> A              
     e( 12 - 12) =      1.14831  eV     1   --> A              
     e( 13 - 13) =      2.63420  eV     1   --> A              
     e( 14 - 14) =      2.64356  eV     1   --> A              
     e( 15 - 15) =      2.71530  eV     1   --> A              
     e( 16 - 16) =      2.72442  eV     1   --> A              
     e( 17 - 17) =      2.90512  eV     1   --> A              
     e( 18 - 18) =      3.18151  eV     1   --> A              
     e( 19 - 19) =      7.97688  eV     1   --> A              
     e( 20 - 20) =      8.54859  eV     1   --> A              
     e( 21 - 21) =      8.57927  eV     1   --> A              
     e( 22 - 22) =      8.72789  eV     1   --> A              
     e( 23 - 23) =      9.33329  eV     1   --> A              
     e( 24 - 24) =      9.88488  eV     1   --> A              
     e( 25 - 25) =     10.15691  eV     1   --> A              
     e( 26 - 26) =     10.63606  eV     1   --> A              
     e( 27 - 27) =     10.63859  eV     1   --> A              
     e( 28 - 28) =     11.34602  eV     1   --> A              
     e( 29 - 29) =     11.65603  eV     1   --> A              
     e( 30 - 30) =     11.69786  eV     1   --> A              
     e( 31 - 31) =     11.85167  eV     1   --> A              
     e( 32 - 32) =     11.91290  eV     1   --> A              
     e( 33 - 33) =     11.92180  eV     1   --> A              
     e( 34 - 34) =     11.92499  eV     1   --> A              
     e( 35 - 35) =     12.28208  eV     1   --> A              
     e( 36 - 36) =     13.44876  eV     1   --> A              
     e( 37 - 37) =     13.54433  eV     1   --> A              
     e( 38 - 38) =     13.77656  eV     1   --> A              
     e( 39 - 39) =     13.81368  eV     1   --> A              
     e( 40 - 40) =     14.25148  eV     1   --> A              
     e( 41 - 41) =     15.47889  eV     1   --> A              
     e( 42 - 42) =     15.60086  eV     1   --> A              
     e( 43 - 43) =     15.67337  eV     1   --> A              
     e( 44 - 44) =     15.81096  eV     1   --> A              
     e( 45 - 45) =     15.96963  eV     1   --> A              
     e( 46 - 46) =     15.98096  eV     1   --> A              
     e( 47 - 47) =     16.50635  eV     1   --> A              
     e( 48 - 48) =     17.86667  eV     1   --> A              
     e( 49 - 49) =     18.35266  eV     1   --> A              
     e( 50 - 50) =     18.59771  eV     1   --> A              
     e( 51 - 51) =     18.64484  eV     1   --> A              
     e( 52 - 52) =     18.84404  eV     1   --> A              
     e( 53 - 53) =     19.28292  eV     1   --> A              
     e( 54 - 54) =     19.66702  eV     1   --> A              
     e( 55 - 55) =     19.67039  eV     1   --> A              
     e( 56 - 56) =     20.09223  eV     1   --> A              
     e( 57 - 57) =     20.10301  eV     1   --> A              
     e( 58 - 58) =     20.56958  eV     1   --> A              
     e( 59 - 59) =     20.81188  eV     1   --> A              
     e( 60 - 60) =     21.00593  eV     1   --> A              
     e( 61 - 61) =     21.28455  eV     1   --> A              
     e( 62 - 62) =     21.53585  eV     1   --> A              
     e( 63 - 63) =     22.03644  eV     1   --> A              
     e( 64 - 64) =     22.52336  eV     1   --> A              
     e( 65 - 65) =     22.62199  eV     1   --> A              
     e( 66 - 66) =     22.88928  eV     1   --> A              
     e( 67 - 67) =     23.16818  eV     1   --> A              
     e( 68 - 68) =     23.67184  eV     1   --> A              
     e( 69 - 69) =     23.98027  eV     1   --> A              
     e( 70 - 70) =     24.13107  eV     1   --> A              

 **************************************************************************

 **************************************************************************

                    xk=(   0.25027,   0.14410,   0.00000  )

     Band symmetry, C_1 (1)     point group:

     e(  1 -  1) =     -9.30809  eV     1   --> A              
     e(  2 -  2) =     -9.29503  eV     1   --> A              
     e(  3 -  3) =     -9.22507  eV     1   --> A              
     e(  4 -  4) =     -9.21120  eV     1   --> A              
     e(  5 -  5) =     -1.69088  eV     1   --> A              
     e(  6 -  6) =     -1.63070  eV     1   --> A              
     e(  7 -  7) =      0.07164  eV     1   --> A              
     e(  8 -  8) =      0.20901  eV     1   --> A              
     e(  9 -  9) =      0.75503  eV     1   --> A              
     e( 10 - 10) =      0.80538  eV     1   --> A              
     e( 11 - 11) =      0.85201  eV     1   --> A              
     e( 12 - 12) =      0.95864  eV     1   --> A              
     e( 13 - 13) =      2.44316  eV     1   --> A              
     e( 14 - 14) =      2.45197  eV     1   --> A              
     e( 15 - 15) =      2.53223  eV     1   --> A              
     e( 16 - 16) =      2.54194  eV     1   --> A              
     e( 17 - 17) =      2.96414  eV     1   --> A              
     e( 18 - 18) =      3.22654  eV     1   --> A              
     e( 19 - 19) =      8.07649  eV     1   --> A              
     e( 20 - 20) =      8.35316  eV     1   --> A              
     e( 21 - 21) =      8.47744  eV     1   --> A              
     e( 22 - 22) =      8.54446  eV     1   --> A              
     e( 23 - 23) =      9.09533  eV     1   --> A              
     e( 24 - 24) =      9.60150  eV     1   --> A              
     e( 25 - 25) =     10.00644  eV     1   --> A              
     e( 26 - 26) =     10.59608  eV     1   --> A              
     e( 27 - 27) =     10.60600  eV     1   --> A              
     e( 28 - 28) =     11.40318  eV     1   --> A              
     e( 29 - 29) =     11.72373  eV     1   --> A              
     e( 30 - 30) =     11.72839  eV     1   --> A              
     e( 31 - 31) =     11.86876  eV     1   --> A              
     e( 32 - 32) =     11.88350  eV     1   --> A              
     e( 33 - 33) =     11.97711  eV     1   --> A              
     e( 34 - 34) =     12.06737  eV     1   --> A              
     e( 35 - 35) =     12.24234  eV     1   --> A              
     e( 36 - 36) =     13.26091  eV     1   --> A              
     e( 37 - 37) =     13.39669  eV     1   --> A              
     e( 38 - 38) =     13.57016  eV     1   --> A              
     e( 39 - 39) =     13.69328  eV     1   --> A              
     e( 40 - 40) =     14.31207  eV     1   --> A              
     e( 41 - 41) =     15.67403  eV     1   --> A              
     e( 42 - 42) =     15.71676  eV     1   --> A              
     e( 43 - 43) =     16.11536  eV     1   --> A              
     e( 44 - 44) =     16.16388  eV     1   --> A              
     e( 45 - 45) =     16.18655  eV     1   --> A              
     e( 46 - 46) =     16.21761  eV     1   --> A              
     e( 47 - 47) =     16.57948  eV     1   --> A              
     e( 48 - 48) =     17.89809  eV     1   --> A              
     e( 49 - 49) =     18.37402  eV     1   --> A              
     e( 50 - 50) =     18.51316  eV     1   --> A              
     e( 51 - 51) =     18.66223  eV     1   --> A              
     e( 52 - 52) =     18.83757  eV     1   --> A              
     e( 53 - 53) =     19.28474  eV     1   --> A              
     e( 54 - 54) =     19.57079  eV     1   --> A              
     e( 55 - 55) =     19.84262  eV     1   --> A              
     e( 56 - 56) =     19.85187  eV     1   --> A              
     e( 57 - 57) =     20.08956  eV     1   --> A              
     e( 58 - 58) =     20.48126  eV     1   --> A              
     e( 59 - 59) =     20.91422  eV     1   --> A              
     e( 60 - 60) =     21.36676  eV     1   --> A              
     e( 61 - 61) =     21.42179  eV     1   --> A              
     e( 62 - 62) =     21.81940  eV     1   --> A              
     e( 63 - 63) =     22.09723  eV     1   --> A              
     e( 64 - 64) =     22.40233  eV     1   --> A              
     e( 65 - 65) =     22.83481  eV     1   --> A              
     e( 66 - 66) =     23.16550  eV     1   --> A              
     e( 67 - 67) =     23.39330  eV     1   --> A              
     e( 68 - 68) =     23.89132  eV     1   --> A              
     e( 69 - 69) =     23.93357  eV     1   --> A              
     e( 70 - 70) =     24.54764  eV     1   --> A              

 **************************************************************************

 **************************************************************************

                    xk=(   0.26952,   0.15519,   0.00000  )

     Band symmetry, C_1 (1)     point group:

     e(  1 -  1) =     -9.19621  eV     1   --> A              
     e(  2 -  2) =     -9.18326  eV     1   --> A              
     e(  3 -  3) =     -9.11621  eV     1   --> A              
     e(  4 -  4) =     -9.10250  eV     1   --> A              
     e(  5 -  5) =     -1.58192  eV     1   --> A              
     e(  6 -  6) =     -1.52632  eV     1   --> A              
     e(  7 -  7) =      0.05471  eV     1   --> A              
     e(  8 -  8) =      0.13286  eV     1   --> A              
     e(  9 -  9) =      0.52401  eV     1   --> A              
     e( 10 - 10) =      0.57745  eV     1   --> A              
     e( 11 - 11) =      0.70500  eV     1   --> A              
     e( 12 - 12) =      0.86733  eV     1   --> A              
     e( 13 - 13) =      2.24116  eV     1   --> A              
     e( 14 - 14) =      2.25013  eV     1   --> A              
     e( 15 - 15) =      2.33965  eV     1   --> A              
     e( 16 - 16) =      2.34999  eV     1   --> A              
     e( 17 - 17) =      3.02333  eV     1   --> A              
     e( 18 - 18) =      3.26872  eV     1   --> A              
     e( 19 - 19) =      8.12168  eV     1   --> A              
     e( 20 - 20) =      8.16282  eV     1   --> A              
     e( 21 - 21) =      8.22564  eV     1   --> A              
     e( 22 - 22) =      8.52620  eV     1   --> A              
     e( 23 - 23) =      8.85673  eV     1   --> A              
     e( 24 - 24) =      9.33022  eV     1   --> A              
     e( 25 - 25) =      9.87848  eV     1   --> A              
     e( 26 - 26) =     10.56477  eV     1   --> A              
     e( 27 - 27) =     10.58393  eV     1   --> A              
     e( 28 - 28) =     11.44201  eV     1   --> A              
     e( 29 - 29) =     11.69597  eV     1   --> A              
     e( 30 - 30) =     11.70461  eV     1   --> A              
     e( 31 - 31) =     11.93745  eV     1   --> A              
     e( 32 - 32) =     12.00037  eV     1   --> A              
     e( 33 - 33) =     12.00541  eV     1   --> A              
     e( 34 - 34) =     12.22186  eV     1   --> A              
     e( 35 - 35) =     12.32879  eV     1   --> A              
     e( 36 - 36) =     13.04889  eV     1   --> A              
     e( 37 - 37) =     13.24063  eV     1   --> A              
     e( 38 - 38) =     13.36372  eV     1   --> A              
     e( 39 - 39) =     13.54852  eV     1   --> A              
     e( 40 - 40) =     14.38513  eV     1   --> A              
     e( 41 - 41) =     15.55783  eV     1   --> A              
     e( 42 - 42) =     15.65216  eV     1   --> A              
     e( 43 - 43) =     16.47495  eV     1   --> A              
     e( 44 - 44) =     16.52972  eV     1   --> A              
     e( 45 - 45) =     16.54358  eV     1   --> A              
     e( 46 - 46) =     16.65585  eV     1   --> A              
     e( 47 - 47) =     16.81981  eV     1   --> A              
     e( 48 - 48) =     17.92254  eV     1   --> A              
     e( 49 - 49) =     18.42031  eV     1   --> A              
     e( 50 - 50) =     18.42357  eV     1   --> A              
     e( 51 - 51) =     18.72846  eV     1   --> A              
     e( 52 - 52) =     18.86248  eV     1   --> A              
     e( 53 - 53) =     19.28802  eV     1   --> A              
     e( 54 - 54) =     19.36184  eV     1   --> A              
     e( 55 - 55) =     19.78233  eV     1   --> A              
     e( 56 - 56) =     20.02368  eV     1   --> A              
     e( 57 - 57) =     20.10822  eV     1   --> A              
     e( 58 - 58) =     20.41258  eV     1   --> A              
     e( 59 - 59) =     20.92014  eV     1   --> A              
     e( 60 - 60) =     21.44527  eV     1   --> A              
     e( 61 - 61) =     21.81027  eV     1   --> A              
     e( 62 - 62) =     22.05844  eV     1   --> A              
     e( 63 - 63) =     22.09224  eV     1   --> A              
     e( 64 - 64) =     22.33956  eV     1   --> A              
     e( 65 - 65) =     23.01970  eV     1   --> A              
     e( 66 - 66) =     23.14671  eV     1   --> A              
     e( 67 - 67) =     23.60275  eV     1   --> A              
     e( 68 - 68) =     24.03784  eV     1   --> A              
     e( 69 - 69) =     24.26917  eV     1   --> A              
     e( 70 - 70) =     24.70183  eV     1   --> A              

 **************************************************************************

 **************************************************************************

                    xk=(   0.28877,   0.16627,   0.00000  )

     Band symmetry, C_1 (1)     point group:

     e(  1 -  1) =     -9.08020  eV     1   --> A              
     e(  2 -  2) =     -9.06737  eV     1   --> A              
     e(  3 -  3) =     -9.00346  eV     1   --> A              
     e(  4 -  4) =     -8.98990  eV     1   --> A              
     e(  5 -  5) =     -1.48297  eV     1   --> A              
     e(  6 -  6) =     -1.43366  eV     1   --> A              
     e(  7 -  7) =     -0.06104  eV     1   --> A              
     e(  8 -  8) =     -0.02515  eV     1   --> A              
     e(  9 -  9) =      0.32401  eV     1   --> A              
     e( 10 - 10) =      0.38288  eV     1   --> A              
     e( 11 - 11) =      0.67405  eV     1   --> A              
     e( 12 - 12) =      0.87459  eV     1   --> A              
     e( 13 - 13) =      2.03076  eV     1   --> A              
     e( 14 - 14) =      2.04005  eV     1   --> A              
     e( 15 - 15) =      2.13931  eV     1   --> A              
     e( 16 - 16) =      2.15035  eV     1   --> A              
     e( 17 - 17) =      3.07939  eV     1   --> A              
     e( 18 - 18) =      3.30586  eV     1   --> A              
     e( 19 - 19) =      7.88689  eV     1   --> A              
     e( 20 - 20) =      7.97347  eV     1   --> A              
     e( 21 - 21) =      8.22515  eV     1   --> A              
     e( 22 - 22) =      8.49320  eV     1   --> A              
     e( 23 - 23) =      8.62481  eV     1   --> A              
     e( 24 - 24) =      9.07467  eV     1   --> A              
     e( 25 - 25) =      9.78785  eV     1   --> A              
     e( 26 - 26) =     10.53934  eV     1   --> A              
     e( 27 - 27) =     10.56747  eV     1   --> A              
     e( 28 - 28) =     11.44995  eV     1   --> A              
     e( 29 - 29) =     11.66701  eV     1   --> A              
     e( 30 - 30) =     11.74099  eV     1   --> A              
     e( 31 - 31) =     11.88382  eV     1   --> A              
     e( 32 - 32) =     12.15516  eV     1   --> A              
     e( 33 - 33) =     12.16102  eV     1   --> A              
     e( 34 - 34) =     12.38370  eV     1   --> A              
     e( 35 - 35) =     12.46492  eV     1   --> A              
     e( 36 - 36) =     12.83912  eV     1   --> A              
     e( 37 - 37) =     13.09225  eV     1   --> A              
     e( 38 - 38) =     13.17126  eV     1   --> A              
     e( 39 - 39) =     13.38775  eV     1   --> A              
     e( 40 - 40) =     14.46009  eV     1   --> A              
     e( 41 - 41) =     15.36209  eV     1   --> A              
     e( 42 - 42) =     15.56205  eV     1   --> A              
     e( 43 - 43) =     16.66783  eV     1   --> A              
     e( 44 - 44) =     16.68585  eV     1   --> A              
     e( 45 - 45) =     16.90684  eV     1   --> A              
     e( 46 - 46) =     17.13366  eV     1   --> A              
     e( 47 - 47) =     17.28725  eV     1   --> A              
     e( 48 - 48) =     17.94528  eV     1   --> A              
     e( 49 - 49) =     18.39520  eV     1   --> A              
     e( 50 - 50) =     18.49104  eV     1   --> A              
     e( 51 - 51) =     18.82952  eV     1   --> A              
     e( 52 - 52) =     18.92469  eV     1   --> A              
     e( 53 - 53) =     19.17354  eV     1   --> A              
     e( 54 - 54) =     19.29250  eV     1   --> A              
     e( 55 - 55) =     19.80622  eV     1   --> A              
     e( 56 - 56) =     20.16235  eV     1   --> A              
     e( 57 - 57) =     20.18320  eV     1   --> A              
     e( 58 - 58) =     20.37357  eV     1   --> A              
     e( 59 - 59) =     20.87246  eV     1   --> A              
     e( 60 - 60) =     21.51388  eV     1   --> A              
     e( 61 - 61) =     21.98412  eV     1   --> A              
     e( 62 - 62) =     22.16041  eV     1   --> A              
     e( 63 - 63) =     22.29983  eV     1   --> A              
     e( 64 - 64) =     22.35147  eV     1   --> A              
     e( 65 - 65) =     23.16139  eV     1   --> A              
     e( 66 - 66) =     23.18036  eV     1   --> A              
     e( 67 - 67) =     23.36312  eV     1   --> A              
     e( 68 - 68) =     24.55871  eV     1   --> A              
     e( 69 - 69) =     24.72061  eV     1   --> A              
     e( 70 - 70) =     24.85314  eV     1   --> A              

[...]
     e( 61 - 61) =     20.25760  eV     1   --> A'             
     e( 62 - 62) =     20.59694  eV     1   --> A'             
     e( 63 - 63) =     20.63493  eV     1   --> A''            
     e( 64 - 64) =     21.01330  eV     1   --> A''            
     e( 65 - 65) =     21.07580  eV     1   --> A'             
     e( 66 - 66) =     21.90036  eV     1   --> A'             
     e( 67 - 67) =     22.11402  eV     1   --> A'             
     e( 68 - 68) =     23.02357  eV     1   --> A'             
     e( 69 - 69) =     23.29385  eV     1   --> A'             
     e( 70 - 70) =     23.69255  eV     1   --> A''            

 **************************************************************************

 **************************************************************************

                    xk=(   0.05775,   0.00000,   0.00000  )

     Band symmetry, C_s (m)     point group:

     e(  1 -  1) =    -10.04862  eV     1   --> A'             
     e(  2 -  2) =    -10.03495  eV     1   --> A'             
     e(  3 -  3) =     -9.94806  eV     1   --> A'             
     e(  4 -  4) =     -9.93336  eV     1   --> A'             
     e(  5 -  5) =     -2.52115  eV     1   --> A'             
     e(  6 -  6) =     -2.44828  eV     1   --> A'             
     e(  7 -  7) =     -0.54264  eV     1   --> A'             
     e(  8 -  8) =     -0.30167  eV     1   --> A'             
     e(  9 -  9) =      2.34453  eV     1   --> A'             
     e( 10 - 10) =      2.74481  eV     1   --> A'             
     e( 11 - 11) =      3.57909  eV     1   --> A'             
     e( 12 - 12) =      3.58682  eV     1   --> A'             
     e( 13 - 13) =      3.59260  eV     1   --> A'             
     e( 14 - 14) =      3.60250  eV     1   --> A'             
     e( 15 - 15) =      3.72609  eV     1   --> A''            
     e( 16 - 16) =      3.73189  eV     1   --> A''            
     e( 17 - 17) =      3.75679  eV     1   --> A''            
     e( 18 - 18) =      3.76288  eV     1   --> A''            
     e( 19 - 19) =      7.18339  eV     1   --> A'             
     e( 20 - 20) =      8.26115  eV     1   --> A'             
     e( 21 - 21) =      9.69690  eV     1   --> A'             
     e( 22 - 22) =     10.39275  eV     1   --> A'             
     e( 23 - 23) =     10.41384  eV     1   --> A'             
     e( 24 - 24) =     10.48641  eV     1   --> A'             
     e( 25 - 25) =     10.63683  eV     1   --> A'             
     e( 26 - 26) =     10.92625  eV     1   --> A'             
     e( 27 - 27) =     10.97110  eV     1   --> A'             
     e( 28 - 28) =     11.17055  eV     1   --> A''            
     e( 29 - 29) =     11.17834  eV     1   --> A''            
     e( 30 - 30) =     11.36986  eV     1   --> A'             
     e( 31 - 31) =     11.58712  eV     1   --> A'             
     e( 32 - 32) =     11.59329  eV     1   --> A'             
     e( 33 - 33) =     11.75362  eV     1   --> A''            
     e( 34 - 34) =     11.76447  eV     1   --> A''            
     e( 35 - 35) =     13.63244  eV     1   --> A'             
     e( 36 - 36) =     13.72500  eV     1   --> A'             
     e( 37 - 37) =     13.83554  eV     1   --> A'             
     e( 38 - 38) =     13.96864  eV     1   --> A''            
     e( 39 - 39) =     14.00974  eV     1   --> A''            
     e( 40 - 40) =     14.47226  eV     1   --> A'             
     e( 41 - 41) =     15.17834  eV     1   --> A'             
     e( 42 - 42) =     15.37342  eV     1   --> A'             
     e( 43 - 43) =     15.42860  eV     1   --> A''            
     e( 44 - 44) =     15.53930  eV     1   --> A''            
     e( 45 - 45) =     15.81538  eV     1   --> A'             
     e( 46 - 46) =     16.14298  eV     1   --> A''            
     e( 47 - 48) =     16.19915  eV     2   --> A'             
     e( 47 - 48) =     16.19915  eV     2   --> A''            
     e( 49 - 49) =     17.10885  eV     1   --> A'             
     e( 50 - 50) =     17.28530  eV     1   --> A'             
     e( 51 - 51) =     18.43178  eV     1   --> A'             
     e( 52 - 52) =     18.44608  eV     1   --> A'             
     e( 53 - 53) =     18.53068  eV     1   --> A'             
     e( 54 - 54) =     18.72944  eV     1   --> A'             
     e( 55 - 55) =     18.99735  eV     1   --> A'             
     e( 56 - 56) =     19.48191  eV     1   --> A'             
     e( 57 - 57) =     19.56329  eV     1   --> A'             
     e( 58 - 58) =     19.73846  eV     1   --> A'             
     e( 59 - 59) =     19.79187  eV     1   --> A''            
     e( 60 - 60) =     19.91431  eV     1   --> A''            
     e( 61 - 61) =     20.37107  eV     1   --> A'             
     e( 62 - 62) =     20.66909  eV     1   --> A''            
     e( 63 - 63) =     20.69201  eV     1   --> A'             
     e( 64 - 64) =     20.94731  eV     1   --> A'             
     e( 65 - 65) =     21.03015  eV     1   --> A''            
     e( 66 - 66) =     21.69401  eV     1   --> A'             
     e( 67 - 67) =     22.04970  eV     1   --> A'             
     e( 68 - 68) =     23.00241  eV     1   --> A'             
     e( 69 - 69) =     23.32317  eV     1   --> A'             
     e( 70 - 70) =     23.82140  eV     1   --> A''            

 **************************************************************************

 **************************************************************************

                    xk=(   0.03850,   0.00000,   0.00000  )

     Band symmetry, C_s (m)     point group:

     e(  1 -  1) =    -10.06698  eV     1   --> A'             
     e(  2 -  2) =    -10.05329  eV     1   --> A'             
     e(  3 -  3) =     -9.96603  eV     1   --> A'             
     e(  4 -  4) =     -9.95131  eV     1   --> A'             
     e(  5 -  5) =     -2.54236  eV     1   --> A'             
     e(  6 -  6) =     -2.46935  eV     1   --> A'             
     e(  7 -  7) =     -0.56076  eV     1   --> A'             
     e(  8 -  8) =     -0.31907  eV     1   --> A'             
     e(  9 -  9) =      2.33497  eV     1   --> A'             
     e( 10 - 10) =      2.73852  eV     1   --> A'             
     e( 11 - 11) =      3.69229  eV     1   --> A'             
     e( 12 - 12) =      3.69873  eV     1   --> A'             
     e( 13 - 13) =      3.71411  eV     1   --> A'             
     e( 14 - 14) =      3.72209  eV     1   --> A'             
     e( 15 - 15) =      3.75397  eV     1   --> A''            
     e( 16 - 16) =      3.75973  eV     1   --> A''            
     e( 17 - 17) =      3.78390  eV     1   --> A''            
     e( 18 - 18) =      3.78994  eV     1   --> A''            
     e( 19 - 19) =      7.15137  eV     1   --> A'             
     e( 20 - 20) =      8.23823  eV     1   --> A'             
     e( 21 - 21) =      9.69865  eV     1   --> A'             
     e( 22 - 22) =     10.30629  eV     1   --> A'             
     e( 23 - 23) =     10.32903  eV     1   --> A'             
     e( 24 - 24) =     10.40591  eV     1   --> A'             
     e( 25 - 25) =     10.55483  eV     1   --> A'             
     e( 26 - 26) =     11.03123  eV     1   --> A'             
     e( 27 - 27) =     11.04924  eV     1   --> A'             
     e( 28 - 28) =     11.13310  eV     1   --> A''            
     e( 29 - 29) =     11.14097  eV     1   --> A''            
     e( 30 - 30) =     11.40329  eV     1   --> A'             
     e( 31 - 31) =     11.62485  eV     1   --> A'             
     e( 32 - 32) =     11.63201  eV     1   --> A'             
     e( 33 - 33) =     11.69225  eV     1   --> A''            
     e( 34 - 34) =     11.70321  eV     1   --> A''            
     e( 35 - 35) =     13.66201  eV     1   --> A'             
     e( 36 - 36) =     13.91868  eV     1   --> A'             
     e( 37 - 37) =     13.96959  eV     1   --> A'             
     e( 38 - 38) =     14.03206  eV     1   --> A''            
     e( 39 - 39) =     14.07223  eV     1   --> A''            
     e( 40 - 40) =     14.50699  eV     1   --> A'             
     e( 41 - 41) =     15.40039  eV     1   --> A'             
     e( 42 - 42) =     15.45433  eV     1   --> A'             
     e( 43 - 43) =     15.47103  eV     1   --> A''            
     e( 44 - 44) =     15.57928  eV     1   --> A''            
     e( 45 - 45) =     15.90857  eV     1   --> A'             
     e( 46 - 46) =     16.03915  eV     1   --> A''            
     e( 47 - 47) =     16.07590  eV     1   --> A'             
     e( 48 - 48) =     16.09378  eV     1   --> A''            
     e( 49 - 49) =     16.87021  eV     1   --> A'             
     e( 50 - 50) =     17.11300  eV     1   --> A'             
     e( 51 - 51) =     18.29833  eV     1   --> A'             
     e( 52 - 52) =     18.39707  eV     1   --> A'             
     e( 53 - 53) =     18.39794  eV     1   --> A'             
     e( 54 - 54) =     18.65834  eV     1   --> A'             
     e( 55 - 55) =     18.84708  eV     1   --> A'             
     e( 56 - 56) =     19.36904  eV     1   --> A'             
     e( 57 - 57) =     19.61921  eV     1   --> A'             
     e( 58 - 58) =     19.71584  eV     1   --> A''            
     e( 59 - 59) =     19.76968  eV     1   --> A'             
     e( 60 - 60) =     19.84195  eV     1   --> A''            
     e( 61 - 61) =     20.52492  eV     1   --> A'             
     e( 62 - 62) =     20.69876  eV     1   --> A''            
     e( 63 - 63) =     20.83964  eV     1   --> A'             
     e( 64 - 64) =     20.85699  eV     1   --> A'             
     e( 65 - 65) =     21.04572  eV     1   --> A''            
     e( 66 - 66) =     21.50383  eV     1   --> A'             
     e( 67 - 67) =     21.99697  eV     1   --> A'             
     e( 68 - 68) =     22.73321  eV     1   --> A'             
     e( 69 - 69) =     23.60113  eV     1   --> A'             
     e( 70 - 70) =     23.92796  eV     1   --> A''            

 **************************************************************************

 **************************************************************************

                    xk=(   0.01925,   0.00000,   0.00000  )

     Band symmetry, C_s (m)     point group:

     e(  1 -  1) =    -10.07802  eV     1   --> A'             
     e(  2 -  2) =    -10.06433  eV     1   --> A'             
     e(  3 -  3) =     -9.97684  eV     1   --> A'             
     e(  4 -  4) =     -9.96210  eV     1   --> A'             
     e(  5 -  5) =     -2.55511  eV     1   --> A'             
     e(  6 -  6) =     -2.48201  eV     1   --> A'             
     e(  7 -  7) =     -0.57167  eV     1   --> A'             
     e(  8 -  8) =     -0.32955  eV     1   --> A'             
     e(  9 -  9) =      2.32881  eV     1   --> A'             
     e( 10 - 10) =      2.73408  eV     1   --> A'             
     e( 11 - 11) =      3.76284  eV     1   --> A'             
     e( 12 - 12) =      3.76871  eV     1   --> A'             
     e( 13 - 13) =      3.77100  eV     1   --> A''            
     e( 14 - 14) =      3.77673  eV     1   --> A''            
     e( 15 - 15) =      3.79013  eV     1   --> A'             
     e( 16 - 16) =      3.79664  eV     1   --> A'             
     e( 17 - 17) =      3.80046  eV     1   --> A''            
     e( 18 - 18) =      3.80646  eV     1   --> A''            
     e( 19 - 19) =      7.13124  eV     1   --> A'             
     e( 20 - 20) =      8.22323  eV     1   --> A'             
     e( 21 - 21) =      9.69778  eV     1   --> A'             
     e( 22 - 22) =     10.24722  eV     1   --> A'             
     e( 23 - 23) =     10.26869  eV     1   --> A'             
     e( 24 - 24) =     10.35171  eV     1   --> A'             
     e( 25 - 25) =     10.49988  eV     1   --> A'             
     e( 26 - 26) =     11.10305  eV     1   --> A'             
     e( 27 - 27) =     11.10637  eV     1   --> A'             
     e( 28 - 28) =     11.10939  eV     1   --> A''            
     e( 29 - 29) =     11.11733  eV     1   --> A''            
     e( 30 - 30) =     11.41848  eV     1   --> A'             
     e( 31 - 31) =     11.65411  eV     1   --> A'             
     e( 32 - 32) =     11.65492  eV     1   --> A''            
     e( 33 - 33) =     11.66469  eV     1   --> A'             
     e( 34 - 34) =     11.66597  eV     1   --> A''            
     e( 35 - 35) =     13.64174  eV     1   --> A'             
     e( 36 - 36) =     14.05930  eV     1   --> A'             
     e( 37 - 37) =     14.07646  eV     1   --> A''            
     e( 38 - 38) =     14.10192  eV     1   --> A'             
     e( 39 - 39) =     14.11597  eV     1   --> A''            
     e( 40 - 40) =     14.51609  eV     1   --> A'             
     e( 41 - 41) =     15.49776  eV     1   --> A''            
     e( 42 - 42) =     15.50614  eV     1   --> A'             
     e( 43 - 43) =     15.56592  eV     1   --> A'             
     e( 44 - 44) =     15.60445  eV     1   --> A''            
     e( 45 - 45) =     15.97078  eV     1   --> A''            
     e( 46 - 46) =     15.98469  eV     1   --> A'             
     e( 47 - 47) =     15.99445  eV     1   --> A'             
     e( 48 - 48) =     16.02469  eV     1   --> A''            
     e( 49 - 49) =     16.69359  eV     1   --> A'             
     e( 50 - 50) =     16.97502  eV     1   --> A'             
     e( 51 - 51) =     18.21346  eV     1   --> A'             
     e( 52 - 52) =     18.31594  eV     1   --> A'             
     e( 53 - 53) =     18.36366  eV     1   --> A'             
     e( 54 - 54) =     18.61259  eV     1   --> A'             
     e( 55 - 55) =     18.74726  eV     1   --> A'             
     e( 56 - 56) =     19.28560  eV     1   --> A'             
     e( 57 - 57) =     19.65831  eV     1   --> A'             
     e( 58 - 58) =     19.66879  eV     1   --> A''            
     e( 59 - 59) =     19.79276  eV     1   --> A'             
     e( 60 - 60) =     19.79724  eV     1   --> A''            
     e( 61 - 61) =     20.67382  eV     1   --> A'             
     e( 62 - 62) =     20.71885  eV     1   --> A''            
     e( 63 - 63) =     20.76844  eV     1   --> A'             
     e( 64 - 64) =     21.01261  eV     1   --> A'             
     e( 65 - 65) =     21.05653  eV     1   --> A''            
     e( 66 - 66) =     21.34412  eV     1   --> A'             
     e( 67 - 67) =     21.96259  eV     1   --> A'             
     e( 68 - 68) =     22.52641  eV     1   --> A'             
     e( 69 - 69) =     23.83231  eV     1   --> A'             
     e( 70 - 70) =     23.99950  eV     1   --> A''            

 **************************************************************************

 **************************************************************************

                    xk=(   0.00000,   0.00000,   0.00000  )

     Band symmetry, C_s (m)     point group:

     e(  1 -  1) =    -10.08170  eV     1   --> A'             
     e(  2 -  2) =    -10.06801  eV     1   --> A'             
     e(  3 -  3) =     -9.98044  eV     1   --> A'             
     e(  4 -  4) =     -9.96571  eV     1   --> A'             
     e(  5 -  5) =     -2.55937  eV     1   --> A'             
     e(  6 -  6) =     -2.48624  eV     1   --> A'             
     e(  7 -  7) =     -0.57532  eV     1   --> A'             
     e(  8 -  8) =     -0.33305  eV     1   --> A'             
     e(  9 -  9) =      2.32670  eV     1   --> A'             
     e( 10 - 10) =      2.73251  eV     1   --> A'             
     e( 11 - 11) =      3.77673  eV     1   --> A''            
     e( 12 - 12) =      3.78245  eV     1   --> A''            
     e( 13 - 13) =      3.78684  eV     1   --> A'             
     e( 14 - 14) =      3.79254  eV     1   --> A'             
     e( 15 - 15) =      3.80602  eV     1   --> A''            
     e( 16 - 16) =      3.81202  eV     1   --> A''            
     e( 17 - 17) =      3.81600  eV     1   --> A'             
     e( 18 - 18) =      3.82198  eV     1   --> A'             
     e( 19 - 19) =      7.12435  eV     1   --> A'             
     e( 20 - 20) =      8.21800  eV     1   --> A'             
     e( 21 - 21) =      9.69714  eV     1   --> A'             
     e( 22 - 22) =     10.22660  eV     1   --> A'             
     e( 23 - 23) =     10.24736  eV     1   --> A'             
     e( 24 - 24) =     10.33271  eV     1   --> A'             
     e( 25 - 25) =     10.48071  eV     1   --> A'             
     e( 26 - 26) =     11.10129  eV     1   --> A''            
     e( 27 - 27) =     11.10925  eV     1   --> A''            
     e( 28 - 28) =     11.12359  eV     1   --> A'             
     e( 29 - 29) =     11.13156  eV     1   --> A'             
     e( 30 - 30) =     11.42290  eV     1   --> A'             
     e( 31 - 31) =     11.64240  eV     1   --> A''            
     e( 32 - 32) =     11.65347  eV     1   --> A''            
     e( 33 - 33) =     11.66537  eV     1   --> A'             
     e( 34 - 34) =     11.67644  eV     1   --> A'             
     e( 35 - 35) =     13.63191  eV     1   --> A'             
     e( 36 - 36) =     14.09250  eV     1   --> A''            
     e( 37 - 37) =     14.11299  eV     1   --> A'             
     e( 38 - 38) =     14.13176  eV     1   --> A''            
     e( 39 - 39) =     14.15228  eV     1   --> A'             
     e( 40 - 40) =     14.51480  eV     1   --> A'             
     e( 41 - 41) =     15.50690  eV     1   --> A''            
     e( 42 - 42) =     15.52403  eV     1   --> A'             
     e( 43 - 43) =     15.61305  eV     1   --> A''            
     e( 44 - 44) =     15.63010  eV     1   --> A'             
     e( 45 - 45) =     15.94680  eV     1   --> A''            
     e( 46 - 46) =     15.96470  eV     1   --> A'             
     e( 47 - 47) =     16.00051  eV     1   --> A''            
     e( 48 - 48) =     16.01840  eV     1   --> A'             
     e( 49 - 49) =     16.62431  eV     1   --> A'             
     e( 50 - 50) =     16.91960  eV     1   --> A'             
     e( 51 - 51) =     18.18442  eV     1   --> A'             
     e( 52 - 52) =     18.28858  eV     1   --> A'             
     e( 53 - 53) =     18.35155  eV     1   --> A'             
     e( 54 - 54) =     18.59699  eV     1   --> A'             
     e( 55 - 55) =     18.71232  eV     1   --> A'             
     e( 56 - 56) =     19.25529  eV     1   --> A'             
     e( 57 - 57) =     19.65286  eV     1   --> A''            
     e( 58 - 58) =     19.67233  eV     1   --> A'             
     e( 59 - 59) =     19.78212  eV     1   --> A''            
     e( 60 - 60) =     19.80119  eV     1   --> A'             
     e( 61 - 61) =     20.72594  eV     1   --> A''            
     e( 62 - 62) =     20.74351  eV     1   --> A'             
     e( 63 - 63) =     20.74580  eV     1   --> A'             
     e( 64 - 64) =     21.06039  eV     1   --> A''            
     e( 65 - 65) =     21.07932  eV     1   --> A'             
     e( 66 - 66) =     21.27029  eV     1   --> A'             
     e( 67 - 67) =     21.95066  eV     1   --> A'             
     e( 68 - 68) =     22.44417  eV     1   --> A'             
     e( 69 - 69) =     23.97394  eV     1   --> A'             
     e( 70 - 70) =     24.02488  eV     1   --> A''            

 **************************************************************************
 
     BANDS        :     12.43s CPU     17.52s WALL

 
   This run was terminated on:  14: 9:14  17Jun2023            

=------------------------------------------------------------------------------=
   JOB DONE.
=------------------------------------------------------------------------------=
