
     Program PWSCF v.7.0 starts on 18Jun2023 at 22: 2:21 

     This program is part of the open-source Quantum ESPRESSO suite
     for quantum simulation of materials; please cite
         "P. Giannozzi et al., J. Phys.:Condens. Matter 21 395502 (2009);
         "P. Giannozzi et al., J. Phys.:Condens. Matter 29 465901 (2017);
         "P. Giannozzi et al., J. Chem. Phys. 152 154105 (2020);
          URL http://www.quantum-espresso.org", 
     in publications or presentations arising from this work. More details at
     http://www.quantum-espresso.org/quote

     Parallel version (MPI), running on    16 processors

     MPI processes distributed on     1 nodes
     R & G space division:  proc/nbgrp/npool/nimage =      16
     3637 MiB available memory on the printing compute node when the environment starts
 
     Waiting for input...
     Reading input from standard input

     Current dimensions of program PWSCF are:
     Max number of different atomic species (ntypx) = 10
     Max number of k-points (npk) =  40000
     Max angular momentum in pseudopotentials (lmaxx) =  4
     Message from routine volume:
     axis vectors are left-handed

     Atomic positions and unit cell read from directory:
     ./work/Al2S2.save/
     Atomic positions from file used, from input discarded
 
     Message from routine volume:
     axis vectors are left-handed
     file Al.pbe-n-kjpaw_psl.1.0.0.UPF: wavefunction(s)  3S 3P renormalized
     file S.pbe-n-kjpaw_psl.1.0.0.UPF: wavefunction(s)  3S 3P renormalized
     Message from routine setup:
     using ibrav=0 with symmetry is DISCOURAGED, use correct ibrav instead

     Subspace diagonalization in iterative solution of the eigenvalue problem:
     a serial algorithm will be used

 
     Parallelization info
     --------------------
     sticks:   dense  smooth     PW     G-vecs:    dense   smooth      PW
     Min          39      39     11                 3971     3971     629
     Max          40      40     12                 3979     3979     642
     Sum         625     625    187                63573    63573   10241
 
     Using Slab Decomposition
 


     bravais-lattice index     =            0
     lattice parameter (alat)  =       6.1344  a.u.
     unit-cell volume          =    1014.0292 (a.u.)^3
     number of atoms/cell      =            8
     number of atomic types    =            2
     number of electrons       =        36.00
     number of Kohn-Sham states=           70
     kinetic-energy cutoff     =      60.0000  Ry
     charge density cutoff     =     240.0000  Ry
     Exchange-correlation= SLA  PW   PBX  PBC
                           (   1   4   3   4   0   0   0)

     celldm(1)=   6.134387  celldm(2)=   0.000000  celldm(3)=   0.000000
     celldm(4)=   0.000000  celldm(5)=   0.000000  celldm(6)=   0.000000

     crystal axes: (cart. coord. in units of alat)
               a(1) = (   0.865734   0.500504   0.000000 )  
               a(2) = (   0.865734  -0.500504   0.000000 )  
               a(3) = (   0.000000   0.000000   5.068913 )  

     reciprocal axes: (cart. coord. in units 2 pi/alat)
               b(1) = (  0.577544  0.998993  0.000000 )  
               b(2) = (  0.577544 -0.998993  0.000000 )  
               b(3) = (  0.000000  0.000000  0.197281 )  


     PseudoPot. # 1 for Al read from file:
     /home/mainadmin/research/danu/pseudo/Al.pbe-n-kjpaw_psl.1.0.0.UPF
     MD5 check sum: 502b6b27b9c6270cab5dd1084b96fa6d
     Pseudo is Projector augmented-wave + core cor, Zval =  3.0
     Generated using &quot;atomic&quot; code by A. Dal Corso  v.6.3
     Shape of augmentation charge: PSQ
     Using radial grid of 1135 points,  6 beta functions with: 
                l(1) =   0
                l(2) =   0
                l(3) =   1
                l(4) =   1
                l(5) =   2
                l(6) =   2
     Q(r) pseudized with 0 coefficients 


     PseudoPot. # 2 for S  read from file:
     /home/mainadmin/research/danu/pseudo/S.pbe-n-kjpaw_psl.1.0.0.UPF
     MD5 check sum: fb45dfebcf3e72a4e1bd4a866ec2e262
     Pseudo is Projector augmented-wave + core cor, Zval =  6.0
     Generated using &quot;atomic&quot; code by A. Dal Corso  v.6.3
     Shape of augmentation charge: PSQ
     Using radial grid of 1151 points,  6 beta functions with: 
                l(1) =   0
                l(2) =   0
                l(3) =   1
                l(4) =   1
                l(5) =   2
                l(6) =   2
     Q(r) pseudized with 0 coefficients 


     atomic species   valence    mass     pseudopotential
        Al             3.00    26.98100     Al( 1.00)
        S              6.00    32.06500     S ( 1.00)

      2 Sym. Ops. (no inversion) found



   Cartesian axes

     site n.     atom                  positions (alat units)
         1           S   tau(   1) = (   1.1543123   0.0000000   0.0000000  )
         2           Al  tau(   2) = (   0.5771561   0.0000000   0.3771467  )
         3           Al  tau(   3) = (   0.5771561   0.0000000   1.1783904  )
         4           S   tau(   4) = (   1.1543123   0.0000000   1.5554814  )
         5           S   tau(   5) = (   0.5771561   0.0000000   2.5353827  )
         6           Al  tau(   6) = (   1.1543123   0.0000000   2.9124722  )
         7           Al  tau(   7) = (   1.1543123   0.0000000   3.7136612  )
         8           S   tau(   8) = (   0.5771561   0.0000000   4.0907070  )

     number of k points=    91
                       cart. coord. in units 2pi/alat
        k(    1) = (   0.0000000   0.0000000   0.0000000), wk =   0.0219780
        k(    2) = (   0.0192515   0.0110848   0.0000000), wk =   0.0219780
        k(    3) = (   0.0385030   0.0221697   0.0000000), wk =   0.0219780
        k(    4) = (   0.0577544   0.0332545   0.0000000), wk =   0.0219780
        k(    5) = (   0.0770059   0.0443393   0.0000000), wk =   0.0219780
        k(    6) = (   0.0962574   0.0554241   0.0000000), wk =   0.0219780
        k(    7) = (   0.1155089   0.0665090   0.0000000), wk =   0.0219780
        k(    8) = (   0.1347604   0.0775938   0.0000000), wk =   0.0219780
        k(    9) = (   0.1540119   0.0886786   0.0000000), wk =   0.0219780
        k(   10) = (   0.1732633   0.0997634   0.0000000), wk =   0.0219780
        k(   11) = (   0.1925148   0.1108483   0.0000000), wk =   0.0219780
        k(   12) = (   0.2117663   0.1219331   0.0000000), wk =   0.0219780
        k(   13) = (   0.2310178   0.1330179   0.0000000), wk =   0.0219780
        k(   14) = (   0.2502693   0.1441027   0.0000000), wk =   0.0219780
        k(   15) = (   0.2695208   0.1551876   0.0000000), wk =   0.0219780
        k(   16) = (   0.2887722   0.1662724   0.0000000), wk =   0.0219780
        k(   17) = (   0.3080237   0.1773572   0.0000000), wk =   0.0219780
        k(   18) = (   0.3272752   0.1884420   0.0000000), wk =   0.0219780
        k(   19) = (   0.3465267   0.1995269   0.0000000), wk =   0.0219780
        k(   20) = (   0.3657782   0.2106117   0.0000000), wk =   0.0219780
        k(   21) = (   0.3850296   0.2216965   0.0000000), wk =   0.0219780
        k(   22) = (   0.4042811   0.2327813   0.0000000), wk =   0.0219780
        k(   23) = (   0.4235326   0.2438662   0.0000000), wk =   0.0219780
        k(   24) = (   0.4427841   0.2549510   0.0000000), wk =   0.0219780
        k(   25) = (   0.4620356   0.2660358   0.0000000), wk =   0.0219780
        k(   26) = (   0.4812871   0.2771206   0.0000000), wk =   0.0219780
        k(   27) = (   0.5005385   0.2882055   0.0000000), wk =   0.0219780
        k(   28) = (   0.5197900   0.2992903   0.0000000), wk =   0.0219780
        k(   29) = (   0.5390415   0.3103751   0.0000000), wk =   0.0219780
        k(   30) = (   0.5582930   0.3214599   0.0000000), wk =   0.0219780
        k(   31) = (   0.5775445   0.3325448   0.0000000), wk =   0.0219780
        k(   32) = (   0.5775445   0.3214599   0.0000000), wk =   0.0219780
        k(   33) = (   0.5775445   0.3103751   0.0000000), wk =   0.0219780
        k(   34) = (   0.5775445   0.2992903   0.0000000), wk =   0.0219780
        k(   35) = (   0.5775445   0.2882055   0.0000000), wk =   0.0219780
        k(   36) = (   0.5775445   0.2771206   0.0000000), wk =   0.0219780
        k(   37) = (   0.5775445   0.2660358   0.0000000), wk =   0.0219780
        k(   38) = (   0.5775445   0.2549510   0.0000000), wk =   0.0219780
        k(   39) = (   0.5775445   0.2438662   0.0000000), wk =   0.0219780
        k(   40) = (   0.5775445   0.2327813   0.0000000), wk =   0.0219780
        k(   41) = (   0.5775445   0.2216965   0.0000000), wk =   0.0219780
        k(   42) = (   0.5775445   0.2106117   0.0000000), wk =   0.0219780
        k(   43) = (   0.5775445   0.1995269   0.0000000), wk =   0.0219780
        k(   44) = (   0.5775445   0.1884420   0.0000000), wk =   0.0219780
        k(   45) = (   0.5775445   0.1773572   0.0000000), wk =   0.0219780
        k(   46) = (   0.5775445   0.1662724   0.0000000), wk =   0.0219780
        k(   47) = (   0.5775445   0.1551876   0.0000000), wk =   0.0219780
        k(   48) = (   0.5775445   0.1441027   0.0000000), wk =   0.0219780
        k(   49) = (   0.5775445   0.1330179   0.0000000), wk =   0.0219780
        k(   50) = (   0.5775445   0.1219331   0.0000000), wk =   0.0219780
        k(   51) = (   0.5775445   0.1108483   0.0000000), wk =   0.0219780
        k(   52) = (   0.5775445   0.0997634   0.0000000), wk =   0.0219780
        k(   53) = (   0.5775445   0.0886786   0.0000000), wk =   0.0219780
        k(   54) = (   0.5775445   0.0775938   0.0000000), wk =   0.0219780
        k(   55) = (   0.5775445   0.0665090   0.0000000), wk =   0.0219780
        k(   56) = (   0.5775445   0.0554241   0.0000000), wk =   0.0219780
        k(   57) = (   0.5775445   0.0443393   0.0000000), wk =   0.0219780
        k(   58) = (   0.5775445   0.0332545   0.0000000), wk =   0.0219780
        k(   59) = (   0.5775445   0.0221697   0.0000000), wk =   0.0219780
        k(   60) = (   0.5775445   0.0110848   0.0000000), wk =   0.0219780
        k(   61) = (   0.5775445   0.0000000   0.0000000), wk =   0.0219780
        k(   62) = (   0.5582930   0.0000000   0.0000000), wk =   0.0219780
        k(   63) = (   0.5390415   0.0000000   0.0000000), wk =   0.0219780
        k(   64) = (   0.5197900   0.0000000   0.0000000), wk =   0.0219780
        k(   65) = (   0.5005385   0.0000000   0.0000000), wk =   0.0219780
        k(   66) = (   0.4812871   0.0000000   0.0000000), wk =   0.0219780
        k(   67) = (   0.4620356   0.0000000   0.0000000), wk =   0.0219780
        k(   68) = (   0.4427841   0.0000000   0.0000000), wk =   0.0219780
        k(   69) = (   0.4235326   0.0000000   0.0000000), wk =   0.0219780
        k(   70) = (   0.4042811   0.0000000   0.0000000), wk =   0.0219780
        k(   71) = (   0.3850296   0.0000000   0.0000000), wk =   0.0219780
        k(   72) = (   0.3657782   0.0000000   0.0000000), wk =   0.0219780
        k(   73) = (   0.3465267   0.0000000   0.0000000), wk =   0.0219780
        k(   74) = (   0.3272752   0.0000000   0.0000000), wk =   0.0219780
        k(   75) = (   0.3080237   0.0000000   0.0000000), wk =   0.0219780
        k(   76) = (   0.2887722   0.0000000   0.0000000), wk =   0.0219780
        k(   77) = (   0.2695208   0.0000000   0.0000000), wk =   0.0219780
        k(   78) = (   0.2502693   0.0000000   0.0000000), wk =   0.0219780
        k(   79) = (   0.2310178   0.0000000   0.0000000), wk =   0.0219780
        k(   80) = (   0.2117663   0.0000000   0.0000000), wk =   0.0219780
        k(   81) = (   0.1925148   0.0000000   0.0000000), wk =   0.0219780
        k(   82) = (   0.1732633   0.0000000   0.0000000), wk =   0.0219780
        k(   83) = (   0.1540119   0.0000000   0.0000000), wk =   0.0219780
        k(   84) = (   0.1347604   0.0000000   0.0000000), wk =   0.0219780
        k(   85) = (   0.1155089   0.0000000   0.0000000), wk =   0.0219780
        k(   86) = (   0.0962574   0.0000000   0.0000000), wk =   0.0219780
        k(   87) = (   0.0770059   0.0000000   0.0000000), wk =   0.0219780
        k(   88) = (   0.0577544   0.0000000   0.0000000), wk =   0.0219780
        k(   89) = (   0.0385030   0.0000000   0.0000000), wk =   0.0219780
        k(   90) = (   0.0192515   0.0000000   0.0000000), wk =   0.0219780
        k(   91) = (   0.0000000   0.0000000   0.0000000), wk =   0.0219780

     Dense  grid:    63573 G-vectors     FFT dimensions: (  32,  32, 160)

     Estimated max dynamical RAM per process >      17.02 MB

     Estimated total dynamical RAM >     272.25 MB

     The potential is recalculated from file :
     ./work/Al2S2.save/charge-density

     Starting wfcs are   32 randomized atomic wfcs +   38 random wfcs
     Checking if some PAW data can be deallocated... 

     Band Structure Calculation
     Davidson diagonalization with overlap

     ethr =  2.78E-11,  avg # of iterations = 63.5

     total cpu time spent up to now is      250.0 secs

     End of band structure calculation

          k = 0.0000 0.0000 0.0000 (  7959 PWs)   bands (ev):

    -8.5425  -8.4458  -8.3598  -8.2506  -1.1362  -0.6677   0.6110   1.8290
     3.6456   5.0291   5.4112   5.4214   5.4394   5.4495   5.4806   5.4908
     5.5099   5.5200   9.0890  10.5308  11.7112  11.9143  11.9165  12.1331
    12.6968  12.7193  12.7836  12.8063  13.2117  13.2348  13.3301  13.3535
    13.9647  15.5841  15.6045  15.7755  15.9053  15.9261  16.5438  16.9356
    16.9523  17.2156  17.4656  17.4832  17.5009  17.5195  17.7733  17.7910
    19.6041  19.9078  19.9389  20.0209  20.2204  20.6938  21.1742  21.1940
    21.6975  21.7167  21.9951  22.0153  22.0637  22.8005  23.2145  23.2332
    23.5555  23.8283  25.2117  25.5469  25.5660  25.8111

          k = 0.0193 0.0111 0.0000 (  7965 PWs)   bands (ev):

    -8.5375  -8.4409  -8.3549  -8.2458  -1.1304  -0.6623   0.6162   1.8330
     3.6485   5.0305   5.3848   5.4065   5.4125   5.4348   5.4557   5.4767
     5.4818   5.5061   9.0989  10.5333  11.7403  11.9401  11.9452  12.1592
    12.6701  12.7158  12.7647  12.8034  13.2080  13.2382  13.3285  13.3575
    13.9810  15.5184  15.5677  15.7975  15.8561  15.8941  16.4618  16.9066
    16.9275  17.1007  17.4634  17.5384  17.5472  17.6721  17.7996  17.8146
    19.6409  19.9513  19.9826  20.0502  20.2300  20.7367  21.1710  21.1990
    21.6893  21.7265  21.9660  21.9946  22.1038  22.8554  23.0642  23.2201
    23.5849  24.0149  25.1085  25.5280  25.6262  25.8527

          k = 0.0385 0.0222 0.0000 (  7963 PWs)   bands (ev):

    -8.5226  -8.4263  -8.3403  -8.2315  -1.1129  -0.6459   0.6317   1.8448
     3.6568   5.0336   5.2905   5.3156   5.3597   5.3768   5.3864   5.4143
     5.4533   5.4835   9.1273  10.5390  11.8218  12.0134  12.0258  12.2333
    12.5586  12.6689  12.7514  12.8348  13.1621  13.2794  13.2967  13.4072
    14.0194  15.3368  15.4958  15.7019  15.7800  15.8819  16.2616  16.8013
    16.8868  16.9318  17.4430  17.6214  17.6985  17.8586  17.8749  17.9796
    19.7484  20.0777  20.0964  20.1304  20.2651  20.8583  21.1344  21.2430
    21.6415  21.7889  21.8762  21.9710  22.2131  22.7899  22.9994  23.2204
    23.6692  24.3605  24.8953  25.4605  25.7322  25.9541

          k = 0.0578 0.0333 0.0000 (  7977 PWs)   bands (ev):

    -8.4979  -8.4021  -8.3159  -8.2077  -1.0838  -0.6188   0.6576   1.8642
     3.6696   5.0280   5.1516   5.1619   5.2160   5.2163   5.3451   5.3751
     5.4148   5.4463   9.1712  10.5445  11.9389  12.1232  12.1395  12.3427
    12.3989  12.5264  12.8096  12.8871  13.0889  13.2206  13.3826  13.4982
    14.0572  15.1024  15.3772  15.5201  15.6709  15.9129  16.0081  16.6444
    16.7808  16.8262  17.4023  17.7214  17.8719  17.9463  17.9915  18.3193
    19.9162  20.1830  20.2442  20.2769  20.3930  21.0286  21.0910  21.3056
    21.5814  21.7927  21.8868  21.9548  22.3775  22.5402  23.2042  23.2194
    23.7984  24.6456  24.7407  25.3527  25.8305  26.0436

          k = 0.0770 0.0443 0.0000 (  7985 PWs)   bands (ev):

    -8.4635  -8.3683  -8.2820  -8.1746  -1.0432  -0.5811   0.6936   1.8908
     3.6843   4.9090   4.9623   5.0060   5.0302   5.0832   5.2897   5.3215
     5.3604   5.3937   9.2271  10.5461  12.0554  12.1616  12.2518  12.3151
    12.3668  12.4673  12.8861  12.9459  13.0024  13.1408  13.5225  13.6296
    14.0778  14.8531  15.2262  15.3613  15.5225  15.7399  15.9410  16.4581
    16.6604  16.7407  17.3390  17.8185  18.0239  18.0415  18.1565  18.6913
    20.1215  20.1813  20.3684  20.5348  20.6347  21.0709  21.1824  21.3737
    21.5192  21.7669  21.9894  22.0096  22.3638  22.5854  23.2186  23.4551
    23.9582  24.3938  25.1275  25.2160  25.9173  25.9712

          k = 0.0963 0.0554 0.0000 (  7983 PWs)   bands (ev):

    -8.4194  -8.3251  -8.2386  -8.1323  -0.9913  -0.5331   0.7397   1.9237
     3.6959   4.6821   4.7280   4.7591   4.8187   5.0900   5.2180   5.2521
     5.2897   5.3256   9.2922  10.5409  11.9602  12.0371  12.3176  12.3774
    12.4349  12.5763  12.9258  12.9593  12.9741  13.0599  13.7126  13.7922
    14.0893  14.6256  15.0542  15.2749  15.3625  15.4877  15.9567  16.2611
    16.5714  16.6282  17.2543  17.9054  18.0811  18.2000  18.3546  19.0787
    20.1334  20.3188  20.4699  20.8304  20.9137  21.1219  21.2721  21.4441
    21.4618  21.8294  22.0250  22.1457  22.3861  22.8121  23.2278  23.7420
    24.1282  24.1783  25.0725  25.4966  25.9380  25.9951

          k = 0.1155 0.0665 0.0000 (  7991 PWs)   bands (ev):

    -8.3660  -8.2727  -8.1860  -8.0810  -0.9282  -0.4751   0.7956   1.9620
     3.6934   4.4227   4.4699   4.4856   4.6024   5.1062   5.1295   5.1668
     5.2025   5.2417   9.3644  10.5273  11.7334  11.8464  12.4154  12.4762
    12.5570  12.6126  12.9143  12.9180  12.9843  12.9969  13.9470  13.9476
    14.1143  14.4531  14.8946  15.2235  15.2840  15.2988  15.9614  16.0704
    16.4891  16.5077  17.1526  17.9780  18.1074  18.3468  18.5680  19.4637
    20.0642  20.4475  20.5186  21.1075  21.1945  21.3030  21.3598  21.4202
    21.5449  21.9484  21.9758  22.2799  22.6907  23.0028  23.2696  24.0517
    24.0647  24.2702  24.9673  25.7384  26.0648  26.0651

          k = 0.1348 0.0776 0.0000 (  7991 PWs)   bands (ev):

    -8.3033  -8.2114  -8.1245  -8.0210  -0.8542  -0.4077   0.8611   2.0038
     3.6532   4.1457   4.1943   4.1979   4.4130   5.0243   5.0653   5.0975
     5.1265   5.1418   9.4425  10.5043  11.4994  11.6203  12.5223  12.5240
    12.5573  12.6417  12.7855  12.9190  12.9788  12.9917  14.0089  14.1057
    14.2064  14.3341  14.8355  15.1546  15.2568  15.3760  15.9036  15.9673
    16.3268  16.4625  17.0436  18.0332  18.0951  18.4840  18.7782  19.8009
    20.0035  20.5024  20.5577  21.2161  21.4263  21.4652  21.4857  21.6145
    21.7706  21.8758  22.1551  22.3923  23.0886  23.1143  23.3862  24.1332
    24.3206  24.3749  24.9637  25.8070  25.8092  26.1243

          k = 0.1540 0.0887 0.0000 (  7993 PWs)   bands (ev):

    -8.2318  -8.1414  -8.0543  -7.9526  -0.7695  -0.3316   0.9357   2.0463
     3.5408   3.8594   3.8924   3.9214   4.2917   4.9024   4.9477   4.9770
     5.0261   5.1465   9.5256  10.4712  11.2620  11.3851  12.4718  12.4751
    12.5089  12.5832  12.8045  12.8234  13.0216  13.1020  13.9139  13.9904
    14.2168  14.4523  14.9259  15.1754  15.4112  15.5441  15.7809  16.0081
    16.1521  16.4351  16.9458  18.0399  18.0691  18.6145  18.9669  19.9799
    19.9892  20.5261  20.7274  21.1706  21.4485  21.5581  21.7248  21.9158
    22.0062  22.0961  22.3062  22.4586  23.1141  23.5909  23.6249  24.2902
    24.3756  24.6907  25.0050  25.6322  25.8797  26.1656

          k = 0.1733 0.0998 0.0000 (  8001 PWs)   bands (ev):

    -8.1518  -8.0631  -7.9759  -7.8761  -0.6748  -0.2479   1.0191   2.0844
     3.3480   3.5708   3.5855   3.6508   4.2515   4.7648   4.8145   4.8396
     4.8949   5.1669   9.6128  10.4279  11.0225  11.1464  12.1929  12.3874
    12.4425  12.4592  12.8308  12.9354  13.1056  13.2228  13.7119  13.8122
    14.0742  14.6326  15.0843  15.2144  15.6431  15.7179  15.7633  16.0309
    16.1480  16.4480  16.8953  17.9437  18.0849  18.7419  19.1222  20.0112
    20.0249  20.5459  21.0455  21.0670  21.4592  21.5422  21.9474  22.1040
    22.3723  22.4359  22.4369  22.4580  23.2371  23.9890  24.0979  24.2679
    24.6996  24.8958  24.9867  25.6987  25.9934  26.1756

          k = 0.1925 0.1108 0.0000 (  7995 PWs)   bands (ev):

    -8.0638  -7.9769  -7.8896  -7.7922  -0.5706  -0.1580   1.1105   2.1090
     3.1053   3.2785   3.2861   3.3991   4.2647   4.6136   4.6663   4.6863
     4.7488   5.1857   9.7027  10.3741  10.7808  10.9061  11.8855  12.1973
    12.3132  12.3993  12.9376  13.0570  13.2112  13.3440  13.4746  13.6261
    13.9221  14.7130  15.1850  15.2473  15.5990  15.6896  15.9286  16.2479
    16.4273  16.5871  16.9491  17.8149  18.0820  18.8702  19.2465  20.0167
    20.0962  20.5722  20.9210  21.2838  21.4681  21.6539  22.0703  22.3443
    22.3742  22.5202  22.6328  22.8856  23.5573  24.2905  24.4436  24.6186
    24.6933  25.0433  25.2551  25.9361  26.1407  26.1586

          k = 0.2118 0.1219 0.0000 (  7997 PWs)   bands (ev):

    -7.9681  -7.8834  -7.7962  -7.7013  -0.4577  -0.0641   1.2089   2.1039
     2.8420   2.9757   3.0107   3.1856   4.2944   4.4611   4.5042   4.5181
     4.5888   5.2015   9.7936  10.3102  10.5363  10.6643  11.5703  11.9336
    12.2524  12.3415  13.0594  13.1838  13.2076  13.3297  13.4587  13.4936
    13.7811  14.7162  15.0838  15.3889  15.4029  15.6296  15.9448  16.6558
    16.8151  16.9120  17.1471  17.6695  18.0627  19.0048  19.3544  20.0115
    20.2177  20.6069  20.7443  21.2973  21.4826  22.0247  22.0985  22.2290
    22.5984  22.5995  22.9171  23.3123  24.0134  24.2498  24.6289  24.9482
    25.1409  25.3666  25.4983  26.0627  26.2349  26.3802

          k = 0.2310 0.1330 0.0000 (  8009 PWs)   bands (ev):

    -7.8655  -7.7831  -7.6961  -7.6040  -0.3376   0.0309   1.3126   2.0463
     2.5749   2.6813   2.7506   3.0355   4.2229   4.3293   4.3365   4.4127
     4.4161   5.2127   9.8826  10.2368  10.2884  10.4207  11.2559  11.6710
    12.2049  12.2907  12.9674  13.1849  13.2728  13.3644  13.4577  13.6341
    13.6672  14.6865  14.9360  15.1516  15.5141  15.5535  15.8668  17.0929
    17.2667  17.2859  17.4609  17.5754  18.0292  19.1545  19.4607  20.0202
    20.3566  20.5585  20.6478  21.2833  21.5047  22.0460  22.0940  22.4486
    22.6704  22.8576  23.2355  23.6543  24.0863  24.5306  24.8347  25.4544
    25.6226  25.6506  25.7441  25.9763  26.5601  26.6613

          k = 0.2503 0.1441 0.0000 (  8001 PWs)   bands (ev):

    -7.7567  -7.6768  -7.5902  -7.5012  -0.2120   0.1224   1.4178   1.9227
     2.3140   2.4011   2.5128   2.9639   4.0422   4.1424   4.1439   4.2323
     4.4709   5.2176   9.9654  10.0370  10.1550  10.1754  10.9481  11.4175
    12.1684  12.2485  12.7481  13.1878  13.3004  13.4839  13.5941  13.6013
    13.7842  14.6507  14.7608  14.9082  15.3649  15.7002  15.7415  17.2728
    17.5153  17.7531  17.8247  17.9153  17.9823  19.3337  19.5740  20.0463
    20.3951  20.5009  20.6891  21.2930  21.5325  21.8523  22.0963  22.7494
    22.8571  23.1279  23.5472  23.6900  24.1282  25.0673  25.1918  25.6922
    25.7960  26.0088  26.1334  26.1417  26.5959  26.9000

          k = 0.2695 0.1552 0.0000 (  7995 PWs)   bands (ev):

    -7.6424  -7.5653  -7.4794  -7.3938  -0.0842   0.2038   1.5136   1.7460
     2.0672   2.1476   2.3058   2.9592   3.8403   3.9393   3.9479   4.0389
     4.5451   5.2147   9.7829   9.9286  10.0364  10.0668  10.6509  11.1775
    12.1373  12.2145  12.5640  13.1129  13.3647  13.6239  13.6386  13.7382
    13.9428  14.5708  14.6165  14.6681  15.2096  15.5845  15.8422  17.1239
    17.8853  17.9211  18.1667  18.2546  18.4184  19.5630  19.6972  20.0948
    20.3012  20.6458  20.7212  21.3342  21.5629  21.6747  22.1249  22.8381
    23.2081  23.4342  23.5076  23.8185  24.3339  25.4425  25.6397  25.7619
    25.9692  26.1461  26.4969  26.5849  26.7244  27.2506

          k = 0.2888 0.1663 0.0000 (  7971 PWs)   bands (ev):

    -7.5236  -7.4495  -7.3647  -7.2827   0.0409   0.2664   1.5422   1.5553
     1.8428   1.9667   2.1401   2.9962   3.6283   3.7276   3.7448   3.8378
     4.6232   5.2025   9.5272   9.6811   9.9747  10.0882  10.3679  10.9535
    12.1043  12.1864  12.4284  13.0695  13.3775  13.7431  13.7989  13.8889
    14.1093  14.3759  14.4383  14.5794  15.0754  15.4095  15.9663  16.9826
    17.8445  18.1684  18.4063  18.7543  18.9320  19.8312  19.8560  20.1764
    20.3440  20.7317  20.7916  21.4061  21.5438  21.5922  22.1925  22.9336
    23.3225  23.4887  23.7786  24.0172  24.5212  25.3511  26.0798  26.1299
    26.1840  26.3393  26.5345  27.0000  27.2449  27.2681

          k = 0.3080 0.1774 0.0000 (  7963 PWs)   bands (ev):

    -7.4014  -7.3306  -7.2473  -7.1692   0.1545   0.2999   1.3310   1.4513
     1.6518   1.9508   2.0273   3.0558   3.4094   3.5098   3.5361   3.6308
     4.7007   5.1799   9.2713   9.4339   9.8821  10.1024  10.1130  10.7472
    12.0673  12.1604  12.3463  13.0568  13.3921  13.8959  13.9677  14.0433
    14.1872  14.2206  14.2923  14.5245  14.9895  15.2252  16.0491  16.8827
    17.7513  18.3498  18.4880  19.2335  19.4150  19.9763  20.1752  20.3155
    20.5700  20.7318  20.9424  21.4948  21.5053  21.6187  22.3081  23.0324
    23.1680  23.7366  24.1100  24.1231  24.6763  25.1903  26.1631  26.2843
    26.6139  26.6238  26.8577  26.9560  27.4183  27.7863

          k = 0.3273 0.1884 0.0000 (  7947 PWs)   bands (ev):

    -7.2771  -7.2097  -7.1285  -7.0545   0.2423   0.2967   1.1244   1.2593
     1.5100   1.9759   2.0430   3.1258   3.1859   3.2877   3.3238   3.4204
     4.7743   5.1462   9.0169   9.1884   9.7925   9.8581  10.1053  10.5590
    12.0369  12.1309  12.3053  13.0719  13.4292  13.9592  14.0453  14.1135
    14.1398  14.1922  14.4561  14.4718  14.9642  15.0423  16.0527  16.8645
    17.6416  18.4349  18.4424  19.6681  19.8075  20.1339  20.3354  20.5608
    20.8514  20.9377  21.1039  21.5638  21.6279  21.6502  22.4795  23.0551
    23.1301  23.9733  24.1276  24.4001  24.7915  25.0114  26.2248  26.3045
    26.6628  26.6815  27.0866  27.3853  27.7128  27.8425

          k = 0.3465 0.1995 0.0000 (  7947 PWs)   bands (ev):

    -7.1522  -7.0884  -7.0098  -6.9401   0.2573   0.2861   0.9294   1.0579
     1.4373   1.9866   2.1644   2.9601   3.0633   3.1104   3.1788   3.2286
     4.8410   5.1015   8.7654   8.9459   9.6383   9.7102  10.0650  10.3888
    12.0152  12.0911  12.2934  13.1101  13.4922  13.8047  13.9075  14.2707
    14.2832  14.3062  14.4611  14.6592  14.8761  14.9874  15.9677  16.9397
    17.5168  18.3159  18.4609  20.0259  20.0743  20.2641  20.3109  20.9315
    21.0705  21.2783  21.3037  21.7597  21.7733  21.8121  22.7132  22.9936
    23.2167  24.0631  24.2067  24.5986  24.8137  24.8504  26.1625  26.2911
    26.3788  26.7366  27.4641  27.5883  27.7735  27.8042

          k = 0.3658 0.2106 0.0000 (  7953 PWs)   bands (ev):

    -7.0281  -6.9680  -6.8931  -6.8278   0.1909   0.2752   0.7511   0.8684
     1.4453   2.0504   2.2918   2.7338   2.8384   2.9001   2.9873   3.2798
     4.8980   5.0465   8.5184   8.7080   9.4464   9.6392   9.9983  10.2352
    11.9758  12.0340  12.3224  13.1653  13.5738  13.6588  13.8209  14.2418
    14.4306  14.4791  14.5905  14.7676  14.8543  15.0434  15.8296  17.0768
    17.3791  18.1714  18.4290  20.1196  20.2612  20.2860  20.5159  21.1987
    21.3423  21.4243  21.4577  21.9511  22.1387  22.2340  22.9950  23.0059
    23.2742  23.9626  24.4346  24.6032  24.6473  24.8265  25.9039  26.1772
    26.2676  26.8606  27.3581  27.4572  27.8648  27.9418

          k = 0.3850 0.2217 0.0000 (  7950 PWs)   bands (ev):

    -6.9067  -6.8504  -6.7800  -6.7193   0.1111   0.2199   0.5929   0.6979
     1.5242   2.1536   2.4045   2.5089   2.6147   2.7085   2.7743   3.3491
     4.9427   4.9831   8.2774   8.4762   9.2851   9.5836   9.9152  10.0963
    11.8909  11.9543  12.4066  13.2285  13.5062  13.7073  13.7901  14.2159
    14.4276  14.6848  14.7404  14.8031  15.0533  15.1265  15.6787  17.2315
    17.2459  18.0290  18.3608  19.9536  20.4288  20.4575  20.7224  21.2537
    21.3937  21.6215  21.6748  22.1976  22.6571  22.6709  23.1218  23.2605
    23.2968  23.9056  24.4174  24.4431  24.7008  24.7157  25.5732  26.1266
    26.2595  27.0342  27.1955  27.2491  27.8440  28.0418

          k = 0.4043 0.2328 0.0000 (  7952 PWs)   bands (ev):

    -6.7899  -6.7374  -6.6727  -6.6165   0.0308   0.1432   0.4579   0.5501
     1.6505   2.2820   2.2878   2.3892   2.3944   2.5629   2.6468   3.4121
     4.9141   4.9732   8.0440   8.2524   9.1562   9.5471   9.8265   9.9694
    11.7618  11.8501  12.5380  13.2871  13.3975  13.8114  13.8454  14.2226
    14.3593  14.8721  14.8954  14.9081  15.2369  15.2571  15.5586  17.0786
    17.4292  17.9046  18.2701  19.7792  20.5700  20.5971  20.8940  21.2553
    21.3087  21.7446  21.8557  22.5227  22.8992  23.0741  23.2213  23.3717
    23.5336  24.1167  24.1458  24.3387  24.4874  24.9647  25.2785  26.1932
    26.2846  27.1314  27.1410  27.2270  27.6957  28.2467

          k = 0.4235 0.2439 0.0000 (  7930 PWs)   bands (ev):

    -6.6796  -6.6309  -6.5730  -6.5212  -0.0402   0.0652   0.3483   0.4277
     1.7990   2.0770   2.1765   2.2140   2.3552   2.4261   2.7459   3.4658
     4.8436   4.9887   7.8203   8.0383   9.0601   9.5329   9.7414   9.8517
    11.6018  11.7231  12.7031  13.3142  13.3260  13.8756  14.0078  14.2632
    14.3179  14.9366  14.9705  15.1146  15.3865  15.4542  15.5399  16.9232
    17.6176  17.8085  18.1701  19.6014  20.6483  20.7478  20.9979  21.1820
    21.1950  21.8146  21.8980  22.7976  22.8497  23.0198  23.2866  23.6717
    23.8337  24.0865  24.2482  24.4291  24.5664  25.0678  25.2300  26.3131
    26.3504  27.1316  27.1738  27.4272  27.5643  28.3811

          k = 0.4428 0.2550 0.0000 (  7934 PWs)   bands (ev):

    -6.5779  -6.5327  -6.4830  -6.4354  -0.0947  -0.0014   0.2661   0.3325
     1.8257   1.9661   2.0083   2.0167   2.1528   2.5715   2.8666   3.5084
     4.7768   4.9895   7.6085   7.8361   8.9957   9.5438   9.6671   9.7406
    11.4232  11.5774  12.8917  13.2594  13.3354  13.9723  14.1915  14.3232
    14.3297  14.8636  15.0389  15.3331  15.5613  15.6453  15.6480  16.7694
    17.7469  17.8025  18.0733  19.4238  20.6769  20.8815  20.9618  21.0111
    21.0520  21.8052  21.8746  22.4260  23.1205  23.1322  23.2425  23.6225
    23.9973  24.0134  24.6947  24.7052  24.9465  25.0896  25.4787  26.4616
    26.4847  27.1868  27.3085  27.4755  27.6314  28.3185

          k = 0.4620 0.2660 0.0000 (  7926 PWs)   bands (ev):

    -6.4865  -6.4446  -6.4043  -6.3605  -0.1282  -0.0491   0.2124   0.2662
     1.6362   1.7635   1.8208   1.9574   2.1679   2.7095   2.9851   3.5385
     4.7204   4.9775   7.4113   7.6484   8.9603   9.5815   9.6093   9.6339
    11.2354  11.4183  13.0963  13.2335  13.3195  14.0919  14.3419  14.3956
    14.4062  14.7804  15.0944  15.5492  15.7489  15.8171  15.8214  16.6212
    17.7220  17.9740  17.9921  19.2495  20.6327  20.7547  20.7812  20.8166
    20.9517  21.6310  21.9953  22.0545  23.2473  23.2883  23.3150  23.5587
    23.8720  24.1871  24.9001  25.0768  25.2851  25.6298  25.6666  26.6335
    26.7440  27.2774  27.4457  27.5100  27.8394  28.2680

          k = 0.4813 0.2771 0.0000 (  7928 PWs)   bands (ev):

    -6.4072  -6.3681  -6.3384  -6.2979  -0.1383  -0.0738   0.1875   0.2292
     1.4425   1.5708   1.6313   1.7710   2.3382   2.8290   3.0959   3.5557
     4.6815   4.9556   7.2318   7.4781   8.9499   9.5306   9.5715   9.6473
    11.0455  11.2509  13.2353  13.2941  13.3103  14.2264  14.2904  14.4689
    14.6171  14.8014  15.1617  15.7561  15.9362  15.9718  15.9983  16.4826
    17.7309  17.9377  18.1201  19.0823  20.3046  20.4807  20.5000  20.6493
    20.8530  21.5404  21.7386  22.1807  23.3642  23.4015  23.4376  23.6108
    23.8190  24.3095  24.9025  25.4012  25.7705  25.8561  26.1600  26.8978
    27.0892  27.3847  27.4825  27.7614  28.0543  28.2405

          k = 0.5005 0.2882 0.0000 (  7934 PWs)   bands (ev):

    -6.3410  -6.3042  -6.2862  -6.2485  -0.1247  -0.0745   0.1904   0.2210
     1.2592   1.3911   1.4516   1.5965   2.5002   2.9198   3.1962   3.5599
     4.6664   4.9275   7.0740   7.3291   8.9596   9.4308   9.5559   9.7410
    10.8593  11.0795  13.2617  13.2752  13.5266  14.1557  14.3692  14.4929
    14.8557  14.9398  15.2672  15.9430  16.0791  16.1142  16.1625  16.3585
    17.7655  17.9208  18.2235  18.9269  19.8505  20.1236  20.1347  20.5761
    20.6118  21.5002  21.5858  22.4016  23.4797  23.5353  23.5471  23.6989
    23.8390  24.3870  24.9311  25.6172  25.7986  26.3866  26.6481  27.2674
    27.4609  27.5002  27.5814  28.0586  28.2365  28.2733

          k = 0.5198 0.2993 0.0000 (  7942 PWs)   bands (ev):

    -6.2887  -6.2538  -6.2481  -6.2126  -0.0902  -0.0531   0.2174   0.2390
     1.0918   1.2291   1.2861   1.4382   2.6461   2.9745   3.2842   3.5518
     4.6778   4.8965   6.9425   7.2056   8.9844   9.3357   9.5623   9.8619
    10.6824  10.9078  13.2746  13.3082  13.7366  13.9897  14.4693  14.5144
    15.1100  15.1403  15.4221  16.0885  16.1396  16.2550  16.2577  16.2781
    17.8137  17.9427  18.2735  18.7903  19.3831  19.7557  19.7634  20.3846
    20.4938  21.3311  21.6700  22.6390  23.5899  23.6374  23.6922  23.7756
    23.9072  24.4182  24.9688  25.7471  25.7504  26.8449  27.0593  27.6243
    27.6493  27.7788  27.7822  28.1563  28.1723  28.3573

          k = 0.5390 0.3104 0.0000 (  7942 PWs)   bands (ev):

    -6.2506  -6.2242  -6.2167  -6.1899  -0.0417  -0.0163   0.2614   0.2762
     0.9487   1.0926   1.1421   1.3036   2.7694   2.9914   3.3588   3.5324
     4.7114   4.8649   6.8426   7.1129   9.0198   9.2478   9.5870  10.0077
    10.5220  10.7392  13.2997  13.3687  13.8165  13.9296  14.4074  14.6540
    15.3739  15.3799  15.6199  16.1334  16.1442  16.2129  16.3011  16.3351
    17.8629  17.9865  18.2871  18.6834  18.9556  19.4320  19.4404  20.2538
    20.4056  21.2167  21.7465  22.8773  23.6860  23.7432  23.8004  23.8283
    24.0041  24.4006  25.0126  25.6160  25.8312  27.1844  27.3619  27.7672
    27.8117  27.8184  27.9125  28.1606  28.2262  28.3617

          k = 0.5583 0.3215 0.0000 (  7942 PWs)   bands (ev):

    -6.2260  -6.2132  -6.1928  -6.1798   0.0068   0.0209   0.3078   0.3173
     0.8449   0.9955   1.0348   1.2065   2.8655   2.9746   3.4195   3.5033
     4.7563   4.8328   6.7798   7.0556   9.0623   9.1708   9.6193  10.1727
    10.3908  10.5791  13.3537  13.4359  13.6456  14.0939  14.3208  14.7715
    15.6337  15.6582  15.8480  16.0945  16.1052  16.1723  16.1882  16.3100
    17.9104  18.0099  18.3186  18.6206  18.6209  19.2040  19.2272  20.2230
    20.3222  21.1490  21.7990  23.0898  23.7539  23.8356  23.8387  23.8521
    24.1172  24.3374  25.0828  25.4108  25.8869  27.3746  27.5469  27.6710
    27.7386  27.9047  27.9207  28.3176  28.4454  28.6884

          k = 0.5775 0.3325 0.0000 (  7952 PWs)   bands (ev):

    -6.2144  -6.2137  -6.1814  -6.1807   0.0334   0.0343   0.3335   0.3343
     0.8044   0.9580   0.9916   1.1686   2.9318   2.9327   3.4659   3.4668
     4.7981   4.7985   6.7584   7.0366   9.1098   9.1103   9.6367  10.3113
    10.3121  10.4710  13.4163  13.5015  13.5025  14.2195  14.2207  14.8272
    15.8984  15.9088  15.9401  16.0372  16.0588  16.0617  16.0778  16.1863
    17.9698  17.9712  18.4106  18.4204  18.6038  19.1353  19.1415  20.2520
    20.2606  21.1260  21.8192  23.1988  23.7801  23.8358  23.8420  23.8817
    24.2359  24.2364  25.2017  25.2163  25.9094  27.4349  27.6314  27.6328
    27.6507  27.9556  27.9589  28.3559  28.5983  28.6093

          k = 0.5775 0.3215 0.0000 (  7940 PWs)   bands (ev):

    -6.2182  -6.2122  -6.1852  -6.1791   0.0233   0.0320   0.3231   0.3312
     0.8156   0.9685   1.0039   1.1794   2.9046   2.9547   3.4460   3.4846
     4.7796   4.8145   6.7636   7.0410   9.0883   9.1358   9.6308  10.2901
    10.3009  10.5167  13.3716  13.5194  13.5322  14.1670  14.2670  14.8056
    15.7242  15.7986  15.9595  16.0592  16.0818  16.0824  16.1472  16.2827
    17.9280  18.0108  18.3632  18.4948  18.6078  19.1369  19.1780  20.2372
    20.2829  21.1320  21.8125  23.1582  23.7718  23.8124  23.8699  23.8755
    24.1733  24.2939  25.1480  25.2988  25.9018  27.4177  27.5969  27.6433
    27.6815  27.9441  27.9548  28.3490  28.5292  28.6675

          k = 0.5775 0.3104 0.0000 (  7938 PWs)   bands (ev):

    -6.2247  -6.2130  -6.1916  -6.1797   0.0008   0.0192   0.2989   0.3172
     0.8477   0.9990   1.0385   1.2105   2.8732   2.9709   3.4238   3.5002
     4.7591   4.8262   6.7793   7.0537   9.0731   9.1632   9.6119  10.2282
    10.3117  10.6081  13.2967  13.5587  13.5756  14.1126  14.3033  14.7468
    15.5285  15.6230  15.7991  16.0828  16.0980  16.2293  16.2930  16.4148
    17.8790  18.0556  18.3397  18.5813  18.6233  19.1591  19.2465  20.2227
    20.3163  21.1495  21.7941  23.0579  23.7483  23.7527  23.8519  23.9470
    24.1048  24.3481  25.1350  25.3905  25.8810  27.3693  27.5405  27.6604
    27.7260  27.9234  27.9404  28.3368  28.4608  28.6907

          k = 0.5775 0.2993 0.0000 (  7944 PWs)   bands (ev):

    -6.2334  -6.2161  -6.2001  -6.1825  -0.0319  -0.0038   0.2640   0.2929
     0.8987   1.0482   1.0928   1.2607   2.8394   2.9810   3.4006   3.5128
     4.7366   4.8328   6.8047   7.0734   9.0659   9.1925   9.5807  10.1590
    10.3433  10.7115  13.2189  13.5814  13.6416  14.0578  14.3281  14.6524
    15.3201  15.4200  15.6151  16.1243  16.1304  16.3796  16.4439  16.5534
    17.8284  18.1034  18.3327  18.6524  18.6763  19.1975  19.3385  20.2188
    20.3488  21.1784  21.7626  22.9151  23.6616  23.7114  23.8350  24.0313
    24.0386  24.3974  25.1606  25.4877  25.8464  27.2936  27.4657  27.6694
    27.7810  27.9048  27.9160  28.3290  28.3860  28.5778

          k = 0.5775 0.2882 0.0000 (  7940 PWs)   bands (ev):

    -6.2438  -6.2213  -6.2103  -6.1874  -0.0723  -0.0353   0.2214   0.2602
     0.9658   1.1140   1.1633   1.3276   2.8038   2.9858   3.3765   3.5227
     4.7121   4.8339   6.8390   7.0985   9.0679   9.2241   9.5397  10.0888
    10.3926  10.8196  13.1413  13.5995  13.7114  14.0030  14.3362  14.5334
    15.1062  15.1986  15.4162  16.1615  16.1982  16.5324  16.5963  16.6951
    17.7808  18.1523  18.3350  18.6957  18.7761  19.2488  19.4472  20.2270
    20.3774  21.2186  21.7177  22.7452  23.5533  23.6576  23.8211  23.9546
    24.1389  24.4406  25.2170  25.5863  25.7984  27.1991  27.3741  27.6557
    27.8419  27.8761  27.8929  28.2973  28.3381  28.4163

          k = 0.5775 0.2771 0.0000 (  7938 PWs)   bands (ev):

    -6.2560  -6.2285  -6.2220  -6.1941  -0.1178  -0.0731   0.1740   0.2216
     1.0460   1.1939   1.2470   1.4086   2.7672   2.9859   3.3517   3.5301
     4.6856   4.8298   6.8810   7.1269   9.0803   9.2586   9.4920  10.0194
    10.4561  10.9295  13.0642  13.6127  13.7791  13.9485  14.2917  14.4332
    14.8959  14.9648  15.2084  16.2093  16.2794  16.6872  16.7484  16.8384
    17.7400  18.2004  18.3413  18.7531  18.8772  19.3102  19.5677  20.2487
    20.3995  21.2698  21.6604  22.5592  23.4370  23.5879  23.8122  23.8753
    24.2416  24.4764  25.2948  25.6816  25.7381  27.0942  27.2704  27.6106
    27.8063  27.8877  27.8889  28.2060  28.2825  28.3681

          k = 0.5775 0.2660 0.0000 (  7936 PWs)   bands (ev):

    -6.2695  -6.2374  -6.2350  -6.2024  -0.1664  -0.1152   0.1240   0.1789
     1.1368   1.2855   1.3412   1.5011   2.7303   2.9823   3.3265   3.5352
     4.6572   4.8210   6.9292   7.1565   9.1044   9.2966   9.4403   9.9514
    10.5304  11.0394  12.9877  13.6205  13.8322  13.8948  14.1496  14.4051
    14.7043  14.7233  14.9969  16.2674  16.3667  16.8438  16.8984  16.9817
    17.7099  18.2467  18.3483  18.8240  18.9755  19.3795  19.6966  20.2841
    20.4125  21.3312  21.5942  22.3646  23.3191  23.5029  23.7951  23.8108
    24.3421  24.5039  25.3858  25.6675  25.7676  26.9850  27.1606  27.5361
    27.6910  27.8601  27.8890  28.1769  28.1923  28.3171

          k = 0.5775 0.2550 0.0000 (  7924 PWs)   bands (ev):

    -6.2841  -6.2497  -6.2473  -6.2122  -0.2167  -0.1600   0.0728   0.1339
     1.2363   1.3864   1.4442   1.6034   2.6936   2.9756   3.3010   3.5382
     4.6272   4.8079   6.9821   7.1853   9.1413   9.3389   9.3863   9.8852
    10.6127  11.1471  12.9113  13.6225  13.8421  13.8440  13.9680  14.3976
    14.4780  14.5604  14.7862  16.3349  16.4526  17.0014  17.0436  17.1235
    17.6949  18.2913  18.3550  18.9071  19.0662  19.4545  19.8312  20.3329
    20.4142  21.4021  21.5258  22.1676  23.2019  23.4037  23.7156  23.8191
    24.4374  24.5223  25.4827  25.5889  25.8361  26.8744  27.0516  27.4422
    27.5326  27.7381  27.8970  28.1416  28.1643  28.2385

          k = 0.5775 0.2439 0.0000 (  7938 PWs)   bands (ev):

    -6.2997  -6.2647  -6.2589  -6.2231  -0.2675  -0.2062   0.0215   0.0877
     1.3428   1.4950   1.5543   1.7136   2.6579   2.9668   3.2754   3.5394
     4.5960   4.7912   7.0380   7.2113   9.1916   9.3316   9.3862   9.8208
    10.7004  11.2501  12.8341  13.6172  13.7731  13.7785  13.7909  14.2332
    14.3909  14.5028  14.5805  16.4105  16.5298  17.1596  17.1805  17.2614
    17.6997  18.3351  18.3632  19.0013  19.1435  19.5334  19.9694  20.3934
    20.4037  21.4639  21.4812  21.9736  23.0849  23.2923  23.6389  23.8386
    24.5246  24.5312  25.5046  25.5790  25.8764  26.7633  26.9494  27.3406
    27.3469  27.5885  27.9125  27.9954  28.1130  28.3374

          k = 0.5775 0.2328 0.0000 (  7946 PWs)   bands (ev):

    -6.3160  -6.2805  -6.2714  -6.2350  -0.3181  -0.2528  -0.0292   0.0413
     1.4548   1.6092   1.6706   1.8306   2.6239   2.9566   3.2499   3.5390
     4.5638   4.7716   7.0952   7.2331   9.2558   9.2772   9.4391   9.7583
    10.7910  11.3455  12.7547  13.5732  13.5998  13.6364  13.7415  13.9963
    14.3821  14.3842  14.5331  16.4923  16.5913  17.3035  17.3176  17.3924
    17.7293  18.3777  18.3810  19.1053  19.1996  19.6140  20.1092  20.3830
    20.4621  21.4175  21.5672  21.7885  22.9662  23.1712  23.5671  23.8694
    24.5301  24.6014  25.4169  25.6674  25.8776  26.6513  26.8536  27.1460
    27.2422  27.4518  27.8201  27.9364  28.0918  28.3675

          k = 0.5775 0.2217 0.0000 (  7934 PWs)   bands (ev):

    -6.3329  -6.2969  -6.2846  -6.2477  -0.3677  -0.2992  -0.0788  -0.0046
     1.5708   1.7272   1.7920   1.9532   2.5928   2.9461   3.2247   3.5372
     4.5311   4.7498   7.1522   7.2497   9.2236   9.3336   9.4984   9.6978
    10.8815  11.4290  12.6708  13.3736  13.4554  13.5473  13.6947  13.7923
    14.2023  14.3711  14.6170  16.5779  16.6324  17.4059  17.4743  17.5126
    17.7867  18.4074  18.4316  19.2175  19.2259  19.6945  20.2487  20.3587
    20.5328  21.3932  21.6197  21.6586  22.8442  23.0438  23.5033  23.9103
    24.5188  24.6647  25.3276  25.7399  25.8344  26.5380  26.7501  26.9362
    27.1563  27.3589  27.6442  27.9687  28.0695  28.2479

          k = 0.5775 0.2106 0.0000 (  7928 PWs)   bands (ev):

    -6.3500  -6.3135  -6.2985  -6.2610  -0.4161  -0.3448  -0.1270  -0.0497
     1.6895   1.8466   1.9175   2.0804   2.5661   2.9361   3.1999   3.5344
     4.4982   4.7263   7.2075   7.2605   9.1714   9.4246   9.5646   9.6393
    10.9684  11.4958  12.5784  13.1797  13.2656  13.3996  13.6513  13.6835
    14.0397  14.3582  14.7292  16.6518  16.6629  17.4817  17.6169  17.6283
    17.8721  18.4604  18.4922  19.2137  19.3371  19.7727  20.3408  20.3857
    20.5942  21.3935  21.4791  21.7536  22.7173  22.9140  23.4505  23.9592
    24.4969  24.7112  25.2384  25.7523  25.7883  26.4230  26.6193  26.7208
    27.0883  27.3307  27.4759  28.0040  28.0408  28.1325

          k = 0.5775 0.1995 0.0000 (  7926 PWs)   bands (ev):

    -6.3673  -6.3304  -6.3127  -6.2746  -0.4629  -0.3893  -0.1734  -0.0934
     1.8092   1.9636   2.0464   2.2113   2.5470   2.9281   3.1758   3.5307
     4.4655   4.7017   7.2598   7.2654   9.1209   9.5276   9.5828   9.6380
    11.0467  11.5399  12.4716  12.9975  13.0854  13.1853  13.6131  13.6431
    13.9018  14.3439  14.8576  16.6514  16.7412  17.5307  17.7009  17.7772
    17.9824  18.5430  18.5670  19.1610  19.4622  19.8466  20.3381  20.5175
    20.6275  21.3858  21.4175  21.8506  22.5852  22.7864  23.4123  24.0131
    24.4639  24.7358  25.1503  25.6449  25.8060  26.3067  26.4591  26.5016
    27.0294  27.3338  27.3615  27.9747  28.0024  28.0862

          k = 0.5775 0.1884 0.0000 (  7940 PWs)   bands (ev):

    -6.3846  -6.3471  -6.3271  -6.2885  -0.5079  -0.4322  -0.2179  -0.1356
     1.9281   2.0716   2.1779   2.3450   2.5414   2.9234   3.1524   3.5264
     4.4331   4.6765   7.2645   7.3080   9.0724   9.5282   9.6412   9.7187
    11.1097  11.5559  12.3441  12.8347  12.9271  12.9586  13.5813  13.6191
    13.7935  14.3287  14.9966  16.6349  16.8028  17.5627  17.7614  17.9173
    18.1131  18.6548  18.6581  19.0738  19.5914  19.9145  20.3532  20.6125
    20.6408  21.3600  21.4616  21.9479  22.4486  22.6666  23.3921  24.0684
    24.4193  24.7323  25.0643  25.5281  25.7923  26.1902  26.2792  26.2813
    26.9428  27.2586  27.4307  27.8571  27.9522  28.1241

          k = 0.5775 0.1774 0.0000 (  7936 PWs)   bands (ev):

    -6.4017  -6.3637  -6.3415  -6.3024  -0.5508  -0.4733  -0.2603  -0.1760
     2.0436   2.1587   2.3110   2.4806   2.5606   2.9241   3.1301   3.5219
     4.4015   4.6512   7.2584   7.3514   9.0261   9.4755   9.7634   9.8063
    11.1484  11.5395  12.1933  12.7010  12.7339  12.7971  13.5545  13.5988
    13.7212  14.3130  15.1432  16.6060  16.8345  17.5959  17.7987  18.0407
    18.2595  18.7644  18.7906  18.9677  19.7230  19.9756  20.3834  20.5482
    20.7514  21.4019  21.5199  22.0443  22.3104  22.5613  23.3931  24.1206
    24.3622  24.6930  24.9808  25.4155  25.7521  26.0562  26.0753  26.0953
    26.8112  27.2647  27.5184  27.7276  27.8892  28.1338

          k = 0.5775 0.1663 0.0000 (  7930 PWs)   bands (ev):

    -6.4184  -6.3800  -6.3558  -6.3162  -0.5915  -0.5125  -0.3004  -0.2145
     2.1525   2.2123   2.4448   2.6164   2.6171   2.9331   3.1091   3.5174
     4.3709   4.6260   7.2475   7.3894   8.9820   9.4246   9.8921   9.9002
    11.1529  11.4902  12.0236  12.5164  12.6067  12.6934  13.5242  13.5796
    13.6945  14.2974  15.2951  16.5679  16.8245  17.6480  17.8151  18.1317
    18.4176  18.8677  18.8816  18.9442  19.8548  20.0298  20.4248  20.4546
    20.8445  21.4908  21.5815  22.1394  22.1790  22.4779  23.4172  24.1651
    24.2921  24.6133  24.9000  25.3138  25.6939  25.8318  25.9118  25.9639
    26.6624  27.3174  27.5926  27.6075  27.8131  28.0316

          k = 0.5775 0.1552 0.0000 (  7938 PWs)   bands (ev):

    -6.4346  -6.3958  -6.3699  -6.3297  -0.6300  -0.5497  -0.3383  -0.2508
     2.2327   2.2505   2.5783   2.7078   2.7528   2.9539   3.0903   3.5134
     4.3414   4.6013   7.2324   7.4216   8.9405   9.3755   9.9991  10.0246
    11.1162  11.4111  11.8440  12.3093  12.5593  12.6094  13.4868  13.5606
    13.7147  14.2821  15.4505  16.5229  16.7707  17.7267  17.8141  18.1616
    18.5843  18.8105  19.0034  19.1104  19.9838  20.0792  20.3507  20.4742
    20.9160  21.6065  21.6206  22.0781  22.2334  22.4238  23.4650  24.1966
    24.2084  24.4962  24.8220  25.2180  25.6071  25.6256  25.7399  25.8581
    26.5165  27.3898  27.4521  27.6800  27.7245  27.8593

          k = 0.5775 0.1441 0.0000 (  7934 PWs)   bands (ev):

    -6.4503  -6.4111  -6.3835  -6.3428  -0.6661  -0.5846  -0.3738  -0.2850
     2.2325   2.3330   2.7101   2.8216   2.8841   2.9905   3.0765   3.5104
     4.3133   4.5775   7.2136   7.4480   8.9014   9.3280  10.1011  10.1571
    11.0390  11.3083  11.6632  12.1165  12.5387  12.5583  13.4477  13.5417
    13.7705  14.2677  15.6075  16.4727  16.6799  17.7988  17.8290  18.1101
    18.7569  18.8224  19.1224  19.2853  20.1058  20.1278  20.2473  20.5302
    20.9649  21.5892  21.7369  22.0537  22.3275  22.4044  23.5352  24.1111
    24.2101  24.3517  24.7463  25.1118  25.3832  25.5522  25.5910  25.7597
    26.3835  27.3056  27.4669  27.6238  27.6756  27.7182

          k = 0.5775 0.1330 0.0000 (  7930 PWs)   bands (ev):

    -6.4652  -6.4256  -6.3966  -6.3555  -0.6997  -0.6172  -0.4069  -0.3169
     2.2222   2.3968   2.8386   2.9461   2.9891   3.0453   3.0888   3.5091
     4.2867   4.5547   7.1918   7.4688   8.8650   9.2820  10.2029  10.2848
    10.9296  11.1891  11.4891  11.9426  12.4770  12.5958  13.4110  13.5228
    13.8514  14.2545  15.7638  16.4185  16.5619  17.7718  17.9482  17.9989
    18.8867  18.9332  19.2300  19.4658  20.1500  20.1824  20.2146  20.5922
    20.9969  21.4786  21.8746  22.1136  22.4203  22.4231  23.6253  24.0008
    24.1910  24.2010  24.6723  24.9803  25.1615  25.4735  25.4762  25.6698
    26.2702  27.1527  27.4960  27.5124  27.5385  27.7134

          k = 0.5775 0.1219 0.0000 (  7918 PWs)   bands (ev):

    -6.4793  -6.4393  -6.4090  -6.3675  -0.7308  -0.6474  -0.4374  -0.3465
     2.2077   2.4416   2.9617   3.0104   3.0747   3.1178   3.1833   3.5109
     4.2618   4.5331   7.1674   7.4840   8.8312   9.2374  10.2990  10.4002
    10.7993  11.0604  11.3301  11.7949  12.4214  12.6605  13.3775  13.5040
    13.9498  14.2428  15.9162  16.3613  16.4250  17.7350  17.8634  18.0784
    18.9727  19.1106  19.3179  19.6481  20.0631  20.2512  20.3017  20.6591
    21.0252  21.3301  22.0142  22.2170  22.4661  22.5214  23.7311  23.8793
    24.0235  24.1667  24.5984  24.8220  24.9446  25.3837  25.3971  25.5891
    26.1814  26.9941  27.3251  27.3913  27.5982  27.6731

          k = 0.5775 0.1108 0.0000 (  7908 PWs)   bands (ev):

    -6.4924  -6.4521  -6.4207  -6.3788  -0.7594  -0.6752  -0.4654  -0.3736
     2.1915   2.4702   3.0013   3.0761   3.2032   3.2042   3.3058   3.5178
     4.2386   4.5129   7.1409   7.4942   8.8001   9.1941  10.3794  10.4926
    10.6582  10.9283  11.1976  11.6837  12.3701  12.7423  13.3473  13.4855
    14.0601  14.2330  16.0601  16.2758  16.3019  17.6899  17.7269  18.2151
    19.0624  19.2861  19.3798  19.8171  20.0013  20.3412  20.3597  20.7256
    21.0662  21.1739  22.1507  22.3387  22.5323  22.6231  23.7499  23.8465
    23.8575  24.1073  24.5206  24.6465  24.7393  25.3094  25.3141  25.5174
    26.1189  26.8323  27.1640  27.2620  27.6109  27.6424

          k = 0.5775 0.0998 0.0000 (  7918 PWs)   bands (ev):

    -6.5046  -6.4640  -6.4316  -6.3893  -0.7853  -0.7005  -0.4909  -0.3982
     2.1754   2.4869   2.9889   3.1767   3.2983   3.3296   3.4280   3.5338
     4.2174   4.4943   7.1130   7.4997   8.7718   9.1521  10.4270  10.5142
    10.5489  10.7977  11.1096  11.6216  12.3216  12.8336  13.3203  13.4671
    14.1776  14.2255  16.1195  16.1885  16.2409  17.6060  17.6377  18.3548
    19.1472  19.4148  19.4549  19.8619  20.0744  20.3889  20.4550  20.7632
    21.0489  21.1299  22.2777  22.4679  22.6066  22.7282  23.6181  23.6995
    23.9603  24.0252  24.4274  24.4640  24.5666  25.2269  25.2399  25.4542
    26.0802  26.6707  27.0125  27.1258  27.5382  27.6712

          k = 0.5775 0.0887 0.0000 (  7926 PWs)   bands (ev):

    -6.5157  -6.4748  -6.4415  -6.3989  -0.8086  -0.7232  -0.5137  -0.4204
     2.1599   2.4958   2.9767   3.2567   3.3956   3.4509   3.5449   3.5644
     4.1981   4.4773   7.0841   7.5011   8.7462   9.1116  10.3731  10.4236
    10.5602  10.6728  11.0847  11.6168  12.2751  12.9282  13.2963  13.4489
    14.2205  14.2983  15.9604  16.1793  16.2912  17.5155  17.5800  18.4948
    19.2232  19.4270  19.6094  19.8104  20.2529  20.4032  20.5901  20.6922
    21.0399  21.2149  22.3854  22.5984  22.6736  22.8360  23.4942  23.5605
    23.9253  24.0211  24.2819  24.3401  24.4531  25.1367  25.1686  25.3985
    26.0600  26.5135  26.8697  26.9839  27.4625  27.6877

          k = 0.5775 0.0776 0.0000 (  7940 PWs)   bands (ev):

    -6.5256  -6.4845  -6.4504  -6.4075  -0.8292  -0.7433  -0.5339  -0.4400
     2.1457   2.4997   2.9653   3.3109   3.4914   3.5653   3.6133   3.6543
     4.1809   4.4621   7.0549   7.4991   8.7235   9.0726  10.2391  10.3722
    10.5313  10.5567  11.1200  11.6635  12.2296  13.0216  13.2754  13.4308
    14.2184  14.4186  15.8029  16.1183  16.3562  17.4699  17.5183  18.6326
    19.2884  19.4231  19.7365  19.7544  20.4262  20.4437  20.5406  20.7412
    21.1218  21.3130  22.4594  22.7110  22.7244  22.9450  23.3964  23.4527
    23.8143  23.9287  24.1083  24.3725  24.3833  25.0454  25.0921  25.3494
    26.0517  26.3648  26.7357  26.8377  27.3889  27.6961

          k = 0.5775 0.0665 0.0000 (  7936 PWs)   bands (ev):

    -6.5343  -6.4930  -6.4582  -6.4151  -0.8471  -0.7607  -0.5514  -0.4571
     2.1329   2.5006   2.9553   3.3422   3.5821   3.6706   3.6760   3.7543
     4.1658   4.4488   7.0264   7.4945   8.7036   9.0358  10.1160  10.2959
    10.4521  10.4773  11.1920  11.7449  12.1844  13.1100  13.2572  13.4129
    14.2192  14.5349  15.6512  16.0589  16.3773  17.4547  17.4768  18.7654
    19.3424  19.4095  19.7024  19.8212  20.3724  20.4820  20.6361  20.9025
    21.2324  21.4158  22.4829  22.6921  22.8384  23.0531  23.3485  23.3866
    23.7017  23.7540  23.9532  24.3017  24.5089  24.9548  25.0089  25.3058
    26.0494  26.2286  26.6111  26.6888  27.3209  27.7008

          k = 0.5775 0.0554 0.0000 (  7940 PWs)   bands (ev):

    -6.5418  -6.5003  -6.4650  -6.4217  -0.8623  -0.7756  -0.5663  -0.4716
     2.1219   2.4999   2.9466   3.3590   3.6645   3.7425   3.7650   3.8429
     4.1528   4.4375   6.9993   7.4881   8.6867   9.0017  10.0065  10.2149
    10.3612  10.4139  11.2800  11.8432  12.1390  13.1901  13.2420  13.3951
    14.2228  14.6436  15.5098  16.0031  16.3607  17.3916  17.5298  18.8907
    19.3853  19.3914  19.6550  19.8596  20.2064  20.5799  20.8270  21.0684
    21.3541  21.5165  22.4491  22.6093  22.9281  23.1561  23.3544  23.3563
    23.5683  23.6021  23.8347  24.2332  24.6547  24.8668  24.9191  25.2673
    26.0489  26.1082  26.4978  26.5390  27.2607  27.7049

          k = 0.5775 0.0443 0.0000 (  7932 PWs)   bands (ev):

    -6.5479  -6.5063  -6.4706  -6.4270  -0.8747  -0.7877  -0.5785  -0.4834
     2.1128   2.4985   2.9394   3.3678   3.7362   3.8048   3.8460   3.9185
     4.1420   4.4281   6.9749   7.4809   8.6726   8.9714   9.9133  10.1406
    10.2854  10.3522  11.3713  11.9441  12.0932  13.2295  13.2591  13.3779
    14.2286  14.7409  15.3835  15.9526  16.3223  17.3322  17.6113  19.0057
    19.3726  19.4174  19.6117  19.8655  20.0516  20.7078  21.0140  21.2330
    21.4790  21.6105  22.3696  22.4836  22.9738  23.2331  23.3202  23.3973
    23.4084  23.5373  23.7808  24.1658  24.7837  24.8040  24.8245  25.2336
    26.0062  26.0485  26.3908  26.3982  27.2100  27.7099

          k = 0.5775 0.0333 0.0000 (  7926 PWs)   bands (ev):

    -6.5528  -6.5110  -6.4749  -6.4313  -0.8844  -0.7972  -0.5880  -0.4927
     2.1055   2.4969   2.9338   3.3724   3.7947   3.8573   3.9117   3.9794
     4.1334   4.4207   6.9543   7.4739   8.6616   8.9461   9.8384  10.0790
    10.2256  10.2991  11.4582  12.0363  12.0475  13.2198  13.3148  13.3618
    14.2357  14.8228  15.2774  15.9097  16.2781  17.2802  17.7016  19.1073
    19.3557  19.4390  19.5716  19.8562  19.9168  20.8456  21.1936  21.3887
    21.5991  21.6953  22.2636  22.3394  22.9614  23.1653  23.2603  23.3995
    23.4474  23.5241  23.7990  24.1004  24.7087  24.7286  24.9491  25.2052
    25.9257  26.0470  26.2488  26.3153  27.1699  27.7157

          k = 0.5775 0.0222 0.0000 (  7940 PWs)   bands (ev):

    -6.5562  -6.5144  -6.4781  -6.4343  -0.8913  -0.8040  -0.5947  -0.4993
     2.1004   2.4955   2.9297   3.3748   3.8381   3.8969   3.9602   4.0240
     4.1272   4.4155   6.9386   7.4681   8.6537   8.9268   9.7836  10.0332
    10.1827  10.2589  11.5336  12.0045  12.1106  13.2129  13.3483  13.3555
    14.2425  14.8852  15.1969  15.8769  16.2396  17.2393  17.7829  19.1916
    19.3426  19.4506  19.5348  19.8116  19.8438  20.9733  21.3594  21.5236
    21.7040  21.7714  22.1477  22.1944  22.9097  23.0310  23.1930  23.4701
    23.4915  23.5476  23.8567  24.0402  24.6392  24.6470  25.0792  25.1834
    25.8677  26.0450  26.1215  26.2527  27.1409  27.7214

          k = 0.5775 0.0111 0.0000 (  7944 PWs)   bands (ev):

    -6.5583  -6.5164  -6.4800  -6.4362  -0.8955  -0.8081  -0.5988  -0.5032
     2.0972   2.4945   2.9273   3.3759   3.8649   3.9214   3.9899   4.0513
     4.1233   4.4123   6.9287   7.4643   8.6489   8.9148   9.7502  10.0051
    10.1568  10.2338  11.5881  11.9706  12.1590  13.2088  13.3390  13.3802
    14.2475  14.9243  15.1464  15.8562  16.2140  17.2130  17.8397  19.2519
    19.3343  19.4540  19.5045  19.7455  19.8341  21.0679  21.4950  21.6200
    21.7786  21.8432  22.0417  22.0646  22.8575  22.9304  23.1435  23.5209
    23.5282  23.5763  23.9144  23.9938  24.5704  24.6054  25.1694  25.1771
    25.8328  26.0256  26.0433  26.2135  27.1234  27.7256

          k = 0.5775 0.0000 0.0000 (  7946 PWs)   bands (ev):

    -6.5590  -6.5171  -6.4806  -6.4368  -0.8969  -0.8094  -0.6002  -0.5046
     2.0962   2.4942   2.9265   3.3762   3.8739   3.9297   4.0000   4.0605
     4.1220   4.4112   6.9254   7.4629   8.6473   8.9107   9.7390   9.9956
    10.1482  10.2253  11.6088  11.9569  12.1759  13.2074  13.3356  13.3885
    14.2493  14.9377  15.1292  15.8491  16.2050  17.2039  17.8602  19.2754
    19.3315  19.4539  19.4913  19.7233  19.8306  21.1038  21.5552  21.6559
    21.8063  21.8958  21.9884  21.9916  22.8360  22.8927  23.1256  23.5312
    23.5510  23.5883  23.9389  23.9754  24.5432  24.5905  25.1646  25.2153
    25.8211  25.9881  26.0427  26.2002  27.1176  27.7271

          k = 0.5583 0.0000 0.0000 (  7936 PWs)   bands (ev):

    -6.5684  -6.5260  -6.4882  -6.4439  -0.8839  -0.7943  -0.5859  -0.4889
     2.0688   2.4810   2.9114   3.3767   3.8771   3.9328   4.0030   4.0635
     4.1366   4.4325   6.9291   7.4727   8.6502   8.9307   9.7439  10.0015
    10.1536  10.2279  11.6236  11.9608  12.1795  13.1459  13.3423  13.4382
    14.2526  14.9399  15.1335  15.8687  16.2136  17.2066  17.8627  19.2738
    19.2929  19.3146  19.6311  19.7270  19.8542  21.0471  21.5305  21.5869
    21.7098  21.8612  21.8875  21.9964  22.6818  22.7648  23.2265  23.5711
    23.6211  23.6935  23.9359  24.0270  24.3376  24.8579  25.1999  25.2830
    25.7799  26.0431  26.1165  26.2366  27.1502  27.6993

          k = 0.5390 0.0000 0.0000 (  7938 PWs)   bands (ev):

    -6.5959  -6.5524  -6.5108  -6.4652  -0.8450  -0.7495  -0.5432  -0.4423
     1.9933   2.4398   2.8682   3.3763   3.8865   3.9421   4.0123   4.0727
     4.1817   4.4890   6.9423   7.5018   8.6619   8.9869   9.7586  10.0191
    10.1695  10.2360  11.6674  11.9724  12.1906  13.0308  13.3622  13.5188
    14.2623  14.9464  15.1466  15.9264  16.2394  17.2144  17.8702  19.1033
    19.2686  19.2726  19.7206  19.7705  19.9133  20.8891  21.3963  21.4481
    21.4606  21.6333  21.7631  22.0188  22.4413  22.4923  23.3031  23.6168
    23.7799  23.8315  23.9480  24.2152  24.2519  25.1752  25.3234  25.4540
    25.7787  26.0555  26.3385  26.3659  27.2409  27.6185

          k = 0.5198 0.0000 0.0000 (  7943 PWs)   bands (ev):

    -6.6402  -6.5950  -6.5479  -6.5003  -0.7813  -0.6770  -0.4727  -0.3659
     1.8840   2.3700   2.8021   3.3713   3.9022   3.9576   4.0277   4.0879
     4.2565   4.5651   6.9698   7.5490   8.6878   9.0721   9.7832  10.0486
    10.1958  10.2506  11.7388  11.9918  12.2089  12.9026  13.3950  13.5933
    14.2786  14.9571  15.1682  16.0193  16.2820  17.2270  17.8822  18.9080
    19.2205  19.2576  19.7333  19.8468  19.9839  20.6550  21.1218  21.1269
    21.2876  21.3105  21.6182  22.0504  22.1714  22.2383  23.2712  23.6638
    23.6795  23.9282  24.1962  24.2626  24.5446  25.4963  25.5272  25.6968
    25.8539  26.1054  26.4887  26.6647  27.3736  27.4936

          k = 0.5005 0.0000 0.0000 (  7939 PWs)   bands (ev):

    -6.6994  -6.6518  -6.5987  -6.5484  -0.6944  -0.5797  -0.3755  -0.2615
     1.7548   2.2766   2.7186   3.3582   3.9241   3.9792   4.0492   4.1091
     4.3550   4.6448   7.0182   7.6136   8.7312   9.1795   9.8176  10.0902
    10.2320  10.2731  11.8356  12.0188  12.2344  12.7719  13.4404  13.6563
    14.3011  14.9716  15.1977  16.1427  16.3409  17.2436  17.8978  18.7113
    19.1673  19.2367  19.7388  19.8677  20.0362  20.3687  20.7538  20.7978
    20.9655  21.0384  21.4555  21.8372  22.0875  22.1147  23.1924  23.5106
    23.6995  24.0411  24.2054  24.5811  24.8529  25.7824  25.7974  25.9864
    25.9937  26.2145  26.6635  26.9745  27.3406  27.5324

          k = 0.4813 0.0000 0.0000 (  7951 PWs)   bands (ev):

    -6.7712  -6.7210  -6.6619  -6.6083  -0.5870  -0.4615  -0.2533  -0.1313
     1.6167   2.1676   2.6223   3.3353   3.9520   4.0068   4.0767   4.1362
     4.4677   4.7156   7.0941   7.6954   8.7930   9.3036   9.8621  10.1442
    10.2773  10.3049  11.9553  12.0534  12.2669  12.6446  13.4976  13.7084
    14.3296  14.9893  15.2347  16.2906  16.4151  17.2627  17.9156  18.5162
    19.1168  19.1979  19.7158  19.8412  20.0301  20.0487  20.3648  20.4474
    20.6265  20.7212  21.3077  21.5214  22.0685  22.1292  23.1281  23.3346
    23.7216  24.1276  24.1847  24.8633  25.1377  26.0519  26.0544  26.1799
    26.2993  26.3855  26.8352  27.1871  27.2477  27.7051

          k = 0.4620 0.0000 0.0000 (  7945 PWs)   bands (ev):

    -6.8536  -6.8003  -6.7356  -6.6785  -0.4631  -0.3275  -0.1078   0.0225
     1.4789   2.0524   2.5170   3.3021   3.9859   4.0403   4.1100   4.1691
     4.5837   4.7703   7.2022   7.7952   8.8722   9.4392   9.9173  10.2108
    10.3309  10.3474  12.0950  12.0953  12.3062  12.5262  13.5659  13.7520
    14.3638  15.0096  15.2783  16.4561  16.5034  17.2818  17.9329  18.3244
    19.0691  19.1269  19.6017  19.7081  19.8273  19.9258  19.9726  20.0850
    20.3184  20.3684  21.1057  21.3559  22.0757  22.1756  23.1047  23.1588
    23.7312  24.1217  24.1969  25.0700  25.3576  26.2407  26.3069  26.3961
    26.5893  26.6121  26.9720  27.0773  27.4462  27.8787

          k = 0.4428 0.0000 0.0000 (  7959 PWs)   bands (ev):

    -6.9442  -6.8877  -6.8181  -6.7573  -0.3279  -0.1851   0.0588   0.1975
     1.3509   1.9397   2.4057   3.2594   4.0256   4.0796   4.1491   4.2075
     4.6890   4.8107   7.3447   7.9140   8.9665   9.5799   9.9851  10.2903
    10.3914  10.4019  12.1443  12.2521  12.3520  12.4222  13.6446  13.7901
    14.4034  15.0315  15.3270  16.6034  16.6312  17.2968  17.9446  18.1372
    19.0038  19.0219  19.3567  19.4007  19.5867  19.7201  19.7205  19.8124
    20.0237  20.0683  20.8249  21.3917  22.1096  22.2268  22.9873  23.1296
    23.7294  24.0242  24.2561  25.1647  25.4657  26.3489  26.5013  26.6297
    26.7794  26.8997  27.0464  27.0685  27.5829  28.0103

          k = 0.4235 0.0000 0.0000 (  7955 PWs)   bands (ev):

    -7.0410  -6.9813  -6.9075  -6.8428  -0.1887  -0.0461   0.2441   0.3913
     1.2454   1.8390   2.2910   3.2085   4.0710   4.1244   4.1936   4.2514
     4.7510   4.8629   7.5205   8.0533   9.0731   9.7169  10.0693  10.3831
    10.4574  10.4693  12.2002  12.3381  12.4040  12.4240  13.7328  13.8260
    14.4475  15.0535  15.3792  16.7115  16.8059  17.3005  17.9398  17.9556
    18.8158  18.9691  19.0014  19.1454  19.2192  19.3595  19.4519  19.5776
    19.8941  19.9057  20.5668  21.5174  22.1482  22.2828  22.8228  23.2005
    23.7161  23.9021  24.3101  25.1273  25.4447  26.3568  26.6035  26.8689
    26.9166  27.0531  27.1374  27.1874  27.6773  27.9472

          k = 0.4043 0.0000 0.0000 (  7957 PWs)   bands (ev):

    -7.1421  -7.0792  -7.0019  -6.9334  -0.0560   0.0711   0.4455   0.6014
     1.1815   1.7608   2.1753   3.1514   4.1218   4.1745   4.2434   4.3004
     4.7531   4.9415   7.7260   8.2140   9.1885   9.8380  10.1763  10.4894
    10.5279  10.5505  12.2627  12.2801  12.4616  12.6080  13.8297  13.8628
    14.4955  15.0740  15.4327  16.8195  16.9675  17.2829  17.7814  17.8967
    18.5701  18.6477  18.8544  18.8883  18.8974  19.0087  19.1804  19.2299
    19.7870  19.9182  20.3602  21.6915  22.1780  22.3432  22.6680  23.3064
    23.6905  23.7638  24.3607  24.9716  25.3261  26.2597  26.5993  26.9620
    26.9737  27.1326  27.3060  27.4005  27.6880  27.7170

          k = 0.3850 0.0000 0.0000 (  7965 PWs)   bands (ev):

    -7.2458  -7.1797  -7.0998  -7.0274   0.0540   0.1444   0.6602   0.8247
     1.1844   1.7182   2.0614   3.0906   4.1776   4.2296   4.2981   4.3543
     4.7249   5.0182   7.9567   8.3963   9.3089   9.9331  10.3094  10.6029
    10.6096  10.6461  12.2539  12.3312  12.5243  12.8018  13.9034  13.9345
    14.5460  15.0903  15.4845  16.9085  17.0909  17.2377  17.6225  17.7806
    18.2756  18.3002  18.5390  18.6725  18.6741  18.6985  18.9081  19.0250
    19.7220  19.9407  20.2191  21.8910  22.1933  22.4074  22.5281  23.4204
    23.6247  23.6510  24.4078  24.7370  25.1462  26.0762  26.5032  26.8586
    26.8852  27.3617  27.3737  27.3997  27.6525  27.6581

          k = 0.3658 0.0000 0.0000 (  7975 PWs)   bands (ev):

    -7.3507  -7.2815  -7.1994  -7.1234   0.1052   0.1802   0.8848   1.0570
     1.2687   1.7250   1.9534   3.0287   4.2384   4.2895   4.3576   4.4128
     4.6803   5.0822   8.2077   8.5995   9.4301  10.0001  10.4631  10.6848
    10.7428  10.7574  12.2644  12.4051  12.5913  13.0027  13.9506  14.0460
    14.5975  15.0994  15.5312  16.9320  17.0760  17.2244  17.5027  17.5768
    17.9489  17.9629  18.2170  18.3565  18.4344  18.5698  18.6398  18.9973
    19.6775  19.9636  20.1475  22.0860  22.1923  22.4243  22.4740  23.3976
    23.5961  23.6110  24.4494  24.4600  24.9302  25.8369  26.3438  26.6753
    26.6912  27.0390  27.2912  27.4281  27.6170  27.6252

          k = 0.3465 0.0000 0.0000 (  7979 PWs)   bands (ev):

    -7.4554  -7.3833  -7.2996  -7.2200   0.0683   0.2073   1.1140   1.2883
     1.4237   1.7909   1.8619   2.9696   4.3036   4.3538   4.4214   4.4755
     4.6253   5.1315   8.4743   8.8221   9.5470  10.0425  10.6257  10.7786
    10.8792  10.8948  12.3138  12.4838  12.6615  13.2084  14.0060  14.1633
    14.6477  15.0970  15.5687  16.8320  16.9178  17.1990  17.3143  17.4167
    17.6157  17.6401  17.9530  18.0658  18.2200  18.4375  18.5442  19.0327
    19.6398  19.9841  20.1409  22.1563  22.1736  22.4723  22.5415  23.2328
    23.5239  23.7037  24.1635  24.4804  24.6968  25.5756  26.1470  26.4111
    26.4153  26.6929  26.8174  27.2301  27.3031  27.4106

          k = 0.3273 0.0000 0.0000 (  7977 PWs)   bands (ev):

    -7.5588  -7.4840  -7.3990  -7.3161  -0.0128   0.2031   1.3349   1.4812
     1.6262   1.8312   1.9157   2.9182   4.3728   4.4220   4.4890   4.5420
     4.5641   5.1666   8.7523   9.0618   9.6525  10.0669  10.7832  10.8944
    11.0209  11.0568  12.4014  12.5662  12.7337  13.4160  14.0706  14.2853
    14.6930  15.0781  15.5927  16.6266  16.6985  17.0283  17.0462  17.2162
    17.2903  17.3366  17.8066  17.8850  18.1189  18.3044  18.5565  19.1113
    19.6001  20.0006  20.1907  22.0865  22.1331  22.6072  22.6854  23.0457
    23.4337  23.7520  23.8614  24.4607  24.4911  25.3273  25.9323  26.0484
    26.0768  26.3282  26.3544  26.8326  26.9753  27.3682

          k = 0.3080 0.0000 0.0000 (  7981 PWs)   bands (ev):

    -7.6599  -7.5825  -7.4966  -7.4106  -0.1119   0.1666   1.4543   1.6172
     1.8581   1.9639   2.0899   2.8827   4.4456   4.4937   4.4998   4.5600
     4.6118   5.1889   9.0377   9.3159   9.7350  10.0859  10.9241  11.0405
    11.1774  11.2335  12.5241  12.6510  12.8061  13.6221  14.1432  14.4105
    14.7285  15.0375  15.5981  16.3690  16.4428  16.7391  16.7837  16.8966
    16.9797  17.0586  17.5852  17.9762  18.1157  18.2386  18.5850  19.2173
    19.5522  20.0120  20.2875  22.0039  22.0650  22.6674  22.8511  22.9336
    23.3257  23.5627  23.7089  24.2329  24.4624  25.1210  25.5998  25.6961
    25.7138  25.8761  26.0339  26.5044  26.6592  27.3180

          k = 0.2888 0.0000 0.0000 (  7985 PWs)   bands (ev):

    -7.7579  -7.6781  -7.5916  -7.5027  -0.2176   0.1077   1.4056   1.8032
     2.1080   2.2042   2.3007   2.8768   4.4353   4.5215   4.5684   4.6339
     4.6843   5.2004   9.3273   9.5812   9.7785  10.1176  11.0576  11.2049
    11.3494  11.4235  12.6763  12.7365  12.8767  13.8223  14.2194  14.5373
    14.7474  14.9704  15.5741  16.1003  16.1717  16.4582  16.4682  16.5475
    16.6888  16.8138  17.4069  18.1067  18.1592  18.2456  18.6185  19.3366
    19.4917  20.0178  20.4207  21.9372  21.9598  22.6579  22.7161  23.1832
    23.2022  23.2741  23.5561  24.0216  24.3614  24.9417  25.1136  25.3208
    25.4950  25.5028  25.7168  26.2216  26.3855  27.1763

          k = 0.2695 0.0000 0.0000 (  7973 PWs)   bands (ev):

    -7.8521  -7.7701  -7.6831  -7.5915  -0.3240   0.0357   1.3222   1.9611
     2.3684   2.4740   2.5371   2.9218   4.3732   4.5998   4.6454   4.7100
     4.7589   5.2029   9.6179   9.7770   9.8545  10.1714  11.1946  11.3738
    11.5364  11.6252  12.8203  12.8513  12.9427  14.0095  14.2885  14.6633
    14.7409  14.8746  15.4851  15.8769  15.9081  16.1368  16.1927  16.2024
    16.4219  16.6117  17.2745  18.1964  18.2178  18.3573  18.6496  19.4151
    19.4599  20.0185  20.5767  21.8089  21.8971  22.4745  22.7424  23.0015
    23.0702  23.3156  23.4005  23.8326  24.1708  24.6251  24.6746  25.0425
    25.2163  25.3095  25.4025  25.9730  26.1758  26.9665

          k = 0.2503 0.0000 0.0000 (  7981 PWs)   bands (ev):

    -7.9419  -7.8577  -7.7706  -7.6764  -0.4279  -0.0427   1.2342   2.0587
     2.6334   2.7544   2.7903   3.0365   4.3164   4.6798   4.7241   4.7875
     4.8349   5.1984   9.7427   9.9072  10.1321  10.2381  11.3381  11.5416
    11.7371  11.8358  12.8993  13.0007  13.0405  14.1713  14.3283  14.6998
    14.7519  14.7853  15.2858  15.6806  15.7650  15.8119  15.8795  15.9487
    16.1835  16.4614  17.1871  18.2631  18.2761  18.5292  18.6728  19.3200
    19.5833  20.0150  20.7376  21.6127  21.8919  22.3029  22.7220  22.7501
    22.9501  23.0270  23.4517  23.6699  23.9936  24.1875  24.2946  24.7960
    25.0145  25.1442  25.1606  25.7668  26.0175  26.7560

          k = 0.2310 0.0000 0.0000 (  7997 PWs)   bands (ev):

    -8.0266  -7.9406  -7.8533  -7.7569  -0.5272  -0.1228   1.1482   2.0963
     2.8966   3.0391   3.0540   3.2178   4.2692   4.7608   4.8036   4.8658
     4.9115   5.1885   9.6902  10.1931  10.3057  10.4105  11.4874  11.7065
    11.9483  12.0501  12.9697  13.0471  13.2321  14.2853  14.3027  14.6006
    14.6264  14.8827  15.0460  15.4806  15.5601  15.6010  15.7318  15.7348
    15.9784  16.3682  17.1401  18.3248  18.3317  18.6827  18.7142  19.2056
    19.7058  20.0086  20.8840  21.3841  21.9264  22.1367  22.5251  22.6234
    22.7219  22.8695  23.1901  23.5354  23.6461  23.8889  24.1897  24.4526
    24.8244  25.0162  25.0356  25.6165  25.8651  26.5594

          k = 0.2118 0.0000 0.0000 (  7999 PWs)   bands (ev):

    -8.1060  -8.0182  -7.9309  -7.8324  -0.6207  -0.2016   1.0665   2.0938
     3.1486   3.3230   3.3249   3.4439   4.2382   4.8418   4.8830   4.9439
     4.9878   5.1749   9.6287  10.3674  10.4740  10.6864  11.6403  11.8673
    12.1635  12.2594  13.0263  13.0782  13.4071  14.1849  14.3183  14.4411
    14.5100  14.7354  15.0397  15.2250  15.4070  15.5164  15.5480  15.7474
    15.8114  16.3295  17.1263  18.3586  18.3896  18.6746  18.9004  19.0723
    19.8275  19.9981  21.0015  21.1449  21.9685  21.9860  22.3313  22.4205
    22.4699  22.8039  22.8122  23.2376  23.4292  23.4893  24.0638  24.3710
    24.6167  24.9329  24.9502  25.5254  25.6819  26.3923

          k = 0.1925 0.0000 0.0000 (  8007 PWs)   bands (ev):

    -8.1795  -8.0901  -8.0030  -7.9025  -0.7077  -0.2770   0.9902   2.0702
     3.3741   3.5942   3.6081   3.6938   4.2364   4.9219   4.9615   5.0208
     5.0629   5.1588   9.5630  10.4205  10.7485  10.9567  11.7936  12.0225
    12.3695  12.4488  13.0622  13.0928  13.5330  13.9907  14.2538  14.2718
    14.3696  14.5140  15.0340  15.0889  15.3591  15.4029  15.5816  15.6863
    15.7967  16.3360  17.1379  18.3721  18.4215  18.6443  18.9222  19.0790
    19.9480  19.9760  20.9231  21.0880  21.7956  22.0014  22.1355  22.1726
    22.2975  22.4273  22.7203  22.9235  23.1089  23.3496  23.6661  24.3804
    24.5350  24.8388  24.8967  25.5005  25.5038  26.2676

          k = 0.1733 0.0000 0.0000 (  8001 PWs)   bands (ev):

    -8.2468  -8.1561  -8.0690  -7.9669  -0.7874  -0.3477   0.9200   2.0371
     3.5482   3.8634   3.8863   3.9537   4.2857   4.9999   5.0380   5.0954
     5.1358   5.1415   9.4960  10.4637  11.0152  11.2188  11.9425  12.1690
    12.5381  12.5975  13.0662  13.0961  13.5677  13.7606  14.1013  14.1372
    14.2155  14.3477  14.9607  15.0816  15.3014  15.4461  15.6050  15.7104
    15.8809  16.3758  17.1677  18.3621  18.4157  18.5885  18.7595  19.2297
    19.9321  20.0644  20.7520  21.1484  21.6189  21.8490  21.8754  22.0512
    22.0697  22.1210  22.6122  22.7608  22.8068  23.2752  23.2936  24.1798
    24.5755  24.6468  24.9046  25.4111  25.5676  26.1895

          k = 0.1540 0.0000 0.0000 (  7993 PWs)   bands (ev):

    -8.3078  -8.2157  -8.1289  -8.0252  -0.8595  -0.4125   0.8564   2.0007
     3.6501   4.1269   4.1564   4.2143   4.4035   5.0749   5.1113   5.1239
     5.1667   5.2053   9.4297  10.4970  11.2717  11.4699  12.0790  12.3009
    12.6160  12.6907  13.0396  13.0862  13.4920  13.5364  13.9358  14.0431
    14.0581  14.2760  15.0222  15.0739  15.2454  15.5665  15.5679  15.8736
    15.9965  16.4382  17.2092  18.3267  18.3701  18.5023  18.5928  19.2939
    19.8949  20.1689  20.6475  21.1750  21.4368  21.5771  21.6490  21.7395
    21.9478  21.9672  22.4627  22.4845  22.8331  22.9055  23.2571  24.0307
    24.3838  24.5100  24.9492  25.4155  25.7154  26.1094

          k = 0.1348 0.0000 0.0000 (  8003 PWs)   bands (ev):

    -8.3621  -8.2689  -8.1822  -8.0772  -0.9236  -0.4709   0.7997   1.9647
     3.6902   4.3802   4.4145   4.4686   4.5755   5.1072   5.1454   5.1803
     5.2335   5.2702   9.3653  10.5210  11.5146  11.7061  12.1893  12.4065
    12.5835  12.7031  12.9941  13.0571  13.3105  13.3878  13.7800  13.9055
    14.0130  14.3271  15.0890  15.1827  15.2328  15.5663  15.6803  16.0535
    16.1382  16.5144  17.2568  18.2655  18.2920  18.3689  18.4460  19.1979
    19.9381  20.2432  20.5809  21.0944  21.2333  21.3367  21.4734  21.4964
    21.7833  21.9179  22.2320  22.3458  22.5820  22.8399  23.2356  23.9883
    24.0970  24.3820  25.0214  25.4750  25.8613  25.8792

          k = 0.1155 0.0000 0.0000 (  7993 PWs)   bands (ev):

    -8.4095  -8.3154  -8.2288  -8.1227  -0.9796  -0.5222   0.7501   1.9310
     3.6967   4.6179   4.6563   4.7100   4.7698   5.0926   5.2103   5.2436
     5.2945   5.3296   9.3041  10.5364  11.7351  11.9200  12.2504  12.4654
    12.4825  12.6335  12.9376  13.0124  13.1591  13.2737  13.6380  13.7638
    14.0345  14.4835  15.1424  15.2572  15.3965  15.5975  15.7680  16.2383
    16.2989  16.5976  17.3058  18.1795  18.1938  18.1985  18.3195  18.9815
    20.0357  20.2504  20.5090  20.8760  20.9976  21.1320  21.3517  21.4591
    21.6318  21.8983  22.0513  22.2047  22.3700  22.7583  23.2245  23.8151
    24.0509  24.2543  25.1117  25.4955  25.6740  25.9130

          k = 0.0963 0.0000 0.0000 (  7987 PWs)   bands (ev):

    -8.4498  -8.3550  -8.2686  -8.1615  -1.0272  -0.5662   0.7079   1.9011
     3.6889   4.8322   4.8768   4.9324   4.9620   5.0829   5.2681   5.3000
     5.3486   5.3821   9.2470  10.5441  11.9067  12.0891  12.2398  12.3802
    12.4562  12.5383  12.8771  12.9590  13.0885  13.2189  13.5128  13.6376
    14.0621  14.7033  15.2455  15.3094  15.6339  15.6512  15.8257  16.4187
    16.4697  16.6819  17.3522  18.0246  18.0707  18.0895  18.1926  18.7156
    20.1219  20.1581  20.4158  20.6273  20.7469  21.0382  21.2484  21.4975
    21.4978  21.8890  21.9015  22.0692  22.3402  22.6147  23.2198  23.5534
    24.0076  24.3178  25.2114  25.2401  25.7313  25.8976

          k = 0.0770 0.0000 0.0000 (  7973 PWs)   bands (ev):

    -8.4831  -8.3875  -8.3013  -8.1934  -1.0663  -0.6025   0.6731   1.8758
     3.6765   4.9960   5.0700   5.0982   5.1290   5.1380   5.3176   5.3483
     5.3946   5.4267   9.1957  10.5456  11.9544  12.1488  12.1674  12.3760
    12.3862  12.5200  12.8189  12.9044  13.0939  13.2273  13.4071  13.5301
    14.0659  14.9482  15.3786  15.3945  15.7179  15.8531  15.8771  16.5859
    16.6423  16.7618  17.3927  17.8607  17.9424  17.9909  18.0674  18.4336
    20.0016  20.1642  20.3117  20.3909  20.5090  21.0482  21.1172  21.3836
    21.5517  21.8102  21.9200  21.9465  22.4481  22.4533  23.2181  23.3192
    23.8704  24.5241  24.9179  25.3119  25.8390  25.8532

          k = 0.0578 0.0000 0.0000 (  7971 PWs)   bands (ev):

    -8.5090  -8.4130  -8.3268  -8.2184  -1.0968  -0.6309   0.6460   1.8556
     3.6641   5.0337   5.2103   5.2298   5.2852   5.2927   5.3577   5.3873
     5.4316   5.4625   9.1519  10.5425  11.8828  12.0728  12.0850  12.2928
    12.4824  12.6090  12.7684  12.8553  13.1377  13.2676  13.3227  13.4440
    14.0438  15.1872  15.4529  15.5693  15.7871  15.8538  16.1124  16.7314
    16.8104  16.8321  17.4250  17.7164  17.8004  17.9060  17.9523  18.1521
    19.8419  20.1444  20.1896  20.2106  20.3260  20.9602  21.0971  21.2928
    21.6079  21.8333  21.8428  21.9455  22.3023  22.6352  23.1178  23.2171
    23.7427  24.5874  24.7481  25.4043  25.7872  25.9239

          k = 0.0385 0.0000 0.0000 (  7977 PWs)   bands (ev):

    -8.5276  -8.4312  -8.3451  -8.2363  -1.1187  -0.6513   0.6266   1.8409
     3.6541   5.0328   5.3237   5.3497   5.3871   5.3971   5.4159   5.4164
     5.4586   5.4886   9.1180  10.5373  11.7947  11.9891  11.9990  12.2089
    12.6023  12.7107  12.7295  12.8166  13.1866  13.2614  13.3112  13.3812
    14.0087  15.3932  15.5199  15.7383  15.8364  15.8481  16.3232  16.8467
    16.8875  16.9713  17.4479  17.6016  17.6563  17.8334  17.8580  17.8913
    19.7134  20.0366  20.0600  20.1078  20.2518  20.8196  21.1473  21.2271
    21.6600  21.7639  21.9085  21.9706  22.1785  22.8658  22.9550  23.2160
    23.6421  24.2644  24.9593  25.4797  25.7052  25.9138

          k = 0.0193 0.0000 0.0000 (  7969 PWs)   bands (ev):

    -8.5387  -8.4421  -8.3561  -8.2470  -1.1318  -0.6636   0.6149   1.8320
     3.6477   5.0301   5.3965   5.4051   5.4242   5.4335   5.4670   5.4751
     5.4937   5.5046   9.0964  10.5327  11.7330  11.9336  11.9380  12.1527
    12.6882  12.7051  12.7814  12.7920  13.2221  13.2241  13.3424  13.3430
    13.9773  15.5427  15.5671  15.7948  15.8786  15.8902  16.4816  16.9233
    16.9238  17.1233  17.4613  17.5269  17.5349  17.6428  17.7954  17.8061
    19.6319  19.9406  19.9720  20.0431  20.2277  20.7262  21.1819  21.1875
    21.7004  21.7144  21.9835  21.9886  22.0944  22.8425  23.1021  23.2149
    23.5777  23.9762  25.1324  25.5295  25.6161  25.8422

          k = 0.0000 0.0000 0.0000 (  7959 PWs)   bands (ev):

    -8.5425  -8.4458  -8.3598  -8.2506  -1.1362  -0.6677   0.6110   1.8290
     3.6456   5.0291   5.4112   5.4214   5.4394   5.4495   5.4806   5.4908
     5.5099   5.5200   9.0890  10.5308  11.7112  11.9143  11.9165  12.1331
    12.6968  12.7193  12.7836  12.8063  13.2117  13.2348  13.3301  13.3535
    13.9647  15.5841  15.6045  15.7755  15.9053  15.9261  16.5438  16.9356
    16.9523  17.2156  17.4656  17.4832  17.5009  17.5195  17.7733  17.7910
    19.6041  19.9078  19.9389  20.0209  20.2204  20.6938  21.1742  21.1940
    21.6975  21.7167  21.9951  22.0153  22.0637  22.8005  23.2145  23.2332
    23.5555  23.8283  25.2117  25.5469  25.5660  25.8111

     Writing all to output data dir ./work/Al2S2.save/
 
     init_run     :      0.24s CPU      0.28s WALL (       1 calls)
     electrons    :    201.02s CPU    249.26s WALL (       1 calls)

     Called by init_run:
     wfcinit      :      0.00s CPU      0.00s WALL (       1 calls)
     potinit      :      0.10s CPU      0.11s WALL (       1 calls)
     hinit0       :      0.09s CPU      0.10s WALL (       1 calls)

     Called by electrons:
     c_bands      :    201.02s CPU    249.26s WALL (       1 calls)
     v_of_rho     :      0.01s CPU      0.01s WALL (       1 calls)
     newd         :      0.03s CPU      0.04s WALL (       1 calls)
     PAW_pot      :      0.09s CPU      0.11s WALL (       1 calls)

     Called by c_bands:
     init_us_2    :      0.05s CPU      0.06s WALL (      91 calls)
     init_us_2:cp :      0.05s CPU      0.06s WALL (      91 calls)
     cegterg      :    196.72s CPU    243.54s WALL (     329 calls)

     Called by *egterg:
     cdiaghg      :     30.53s CPU     31.21s WALL (    5869 calls)
     h_psi        :    103.02s CPU    147.16s WALL (    6198 calls)
     s_psi        :      9.15s CPU      9.59s WALL (    6198 calls)
     g_psi        :      0.26s CPU      0.27s WALL (    5778 calls)

     Called by h_psi:
     h_psi:calbec :     11.61s CPU     15.02s WALL (    6198 calls)
     vloc_psi     :     77.60s CPU    117.46s WALL (    6198 calls)
     add_vuspsi   :     13.15s CPU     14.01s WALL (    6198 calls)

     General routines
     calbec       :     11.59s CPU     15.00s WALL (    6198 calls)
     fft          :      0.01s CPU      0.01s WALL (      12 calls)
     fftw         :     74.43s CPU    112.89s WALL (  451036 calls)
     davcio       :      0.05s CPU      0.07s WALL (     182 calls)
 
     Parallel routines
 
     PWSCF        :   3m22.36s CPU   4m11.79s WALL

 
   This run was terminated on:  22: 6:33  18Jun2023            

=------------------------------------------------------------------------------=
   JOB DONE.
=------------------------------------------------------------------------------=
