
     Program BANDS v.7.0 starts on 18Jun2023 at 22: 6:36 

     This program is part of the open-source Quantum ESPRESSO suite
     for quantum simulation of materials; please cite
         "P. Giannozzi et al., J. Phys.:Condens. Matter 21 395502 (2009);
         "P. Giannozzi et al., J. Phys.:Condens. Matter 29 465901 (2017);
         "P. Giannozzi et al., J. Chem. Phys. 152 154105 (2020);
          URL http://www.quantum-espresso.org", 
     in publications or presentations arising from this work. More details at
     http://www.quantum-espresso.org/quote

     Parallel version (MPI), running on    16 processors

     MPI processes distributed on     1 nodes
     R & G space division:  proc/nbgrp/npool/nimage =      16
     2788 MiB available memory on the printing compute node when the environment starts
 

     Reading xml data from directory:

     ./work/Al2S2.save/
     Message from routine volume:
     axis vectors are left-handed
     file Al.pbe-n-kjpaw_psl.1.0.0.UPF: wavefunction(s)  3S 3P renormalized
     file S.pbe-n-kjpaw_psl.1.0.0.UPF: wavefunction(s)  3S 3P renormalized

     IMPORTANT: XC functional enforced from input :
     Exchange-correlation= PBE
                           (   1   4   3   4   0   0   0)
     Any further DFT definition will be discarded
     Please, verify this is what you really want

 
     Parallelization info
     --------------------
     sticks:   dense  smooth     PW     G-vecs:    dense   smooth      PW
     Min          39      39     11                 3971     3971     629
     Max          40      40     12                 3979     3979     642
     Sum         625     625    187                63573    63573   10241
 
     Using Slab Decomposition
 
     Reading collected, re-writing distributed wavefunctions
     high-symmetry point:  0.0000 0.0000 0.0000   x coordinate   0.0000
     high-symmetry point:  0.5775 0.3325 0.0000   x coordinate   0.6664
     high-symmetry point:  0.5775 0.0000 0.0000   x coordinate   0.9990
     high-symmetry point:  0.0000 0.0000 0.0000   x coordinate   1.5765

     Plottable bands (eV) written to file AC.bands.gnu
     Bands written to file AC.bands

 **************************************************************************

                    xk=(   0.00000,   0.00000,   0.00000  )

     point group C_s (m)    
     there are  2 classes
     the character table:

       E     s    
A'     1.00  1.00
A''    1.00 -1.00

     the symmetry operations in each class and the name of the first element:

     E        1
                                                                 
     s        2
                                                                 

     Band symmetry, C_s (m)     point group:

     e(  1 -  1) =     -8.54247  eV     1   --> A'             
     e(  2 -  2) =     -8.44579  eV     1   --> A'             
     e(  3 -  3) =     -8.35981  eV     1   --> A'             
     e(  4 -  4) =     -8.25060  eV     1   --> A'             
     e(  5 -  5) =     -1.13618  eV     1   --> A'             
     e(  6 -  6) =     -0.66771  eV     1   --> A'             
     e(  7 -  7) =      0.61097  eV     1   --> A'             
     e(  8 -  8) =      1.82904  eV     1   --> A'             
     e(  9 -  9) =      3.64555  eV     1   --> A'             
     e( 10 - 10) =      5.02908  eV     1   --> A'             
     e( 11 - 11) =      5.41120  eV     1   --> A''            
     e( 12 - 12) =      5.42140  eV     1   --> A'             
     e( 13 - 13) =      5.43940  eV     1   --> A''            
     e( 14 - 14) =      5.44946  eV     1   --> A'             
     e( 15 - 15) =      5.48059  eV     1   --> A''            
     e( 16 - 16) =      5.49076  eV     1   --> A'             
     e( 17 - 17) =      5.50993  eV     1   --> A''            
     e( 18 - 18) =      5.51996  eV     1   --> A'             
     e( 19 - 19) =      9.08901  eV     1   --> A'             
     e( 20 - 20) =     10.53083  eV     1   --> A'             
     e( 21 - 21) =     11.71123  eV     1   --> A'             
     e( 22 - 22) =     11.91432  eV     1   --> A'             
     e( 23 - 23) =     11.91651  eV     1   --> A'             
     e( 24 - 24) =     12.13310  eV     1   --> A'             
     e( 25 - 25) =     12.69678  eV     1   --> A''            
     e( 26 - 26) =     12.71930  eV     1   --> A'             
     e( 27 - 27) =     12.78362  eV     1   --> A''            
     e( 28 - 28) =     12.80630  eV     1   --> A'             
     e( 29 - 29) =     13.21166  eV     1   --> A''            
     e( 30 - 30) =     13.23479  eV     1   --> A'             
     e( 31 - 31) =     13.33013  eV     1   --> A''            
     e( 32 - 32) =     13.35355  eV     1   --> A'             
     e( 33 - 33) =     13.96467  eV     1   --> A'             
     e( 34 - 34) =     15.58415  eV     1   --> A''            
     e( 35 - 35) =     15.60450  eV     1   --> A'             
     e( 36 - 36) =     15.77551  eV     1   --> A'             
     e( 37 - 37) =     15.90529  eV     1   --> A''            
     e( 38 - 38) =     15.92607  eV     1   --> A'             
     e( 39 - 39) =     16.54376  eV     1   --> A'             
     e( 40 - 40) =     16.93562  eV     1   --> A''            
     e( 41 - 41) =     16.95235  eV     1   --> A'             
     e( 42 - 42) =     17.21562  eV     1   --> A'             
     e( 43 - 43) =     17.46562  eV     1   --> A''            
     e( 44 - 44) =     17.48319  eV     1   --> A'             
     e( 45 - 45) =     17.50086  eV     1   --> A''            
     e( 46 - 46) =     17.51949  eV     1   --> A'             
     e( 47 - 47) =     17.77333  eV     1   --> A''            
     e( 48 - 48) =     17.79096  eV     1   --> A'             
     e( 49 - 49) =     19.60408  eV     1   --> A'             
     e( 50 - 50) =     19.90785  eV     1   --> A'             
     e( 51 - 51) =     19.93892  eV     1   --> A'             
     e( 52 - 52) =     20.02090  eV     1   --> A'             
     e( 53 - 53) =     20.22043  eV     1   --> A'             
     e( 54 - 54) =     20.69379  eV     1   --> A'             
     e( 55 - 55) =     21.17423  eV     1   --> A''            
     e( 56 - 56) =     21.19397  eV     1   --> A'             
     e( 57 - 57) =     21.69751  eV     1   --> A''            
     e( 58 - 58) =     21.71671  eV     1   --> A'             
     e( 59 - 59) =     21.99514  eV     1   --> A''            
     e( 60 - 60) =     22.01535  eV     1   --> A'             
     e( 61 - 61) =     22.06365  eV     1   --> A'             
     e( 62 - 62) =     22.80054  eV     1   --> A'             
     e( 63 - 63) =     23.21448  eV     1   --> A''            
     e( 64 - 64) =     23.23320  eV     1   --> A'             
     e( 65 - 65) =     23.55549  eV     1   --> A'             
     e( 66 - 66) =     23.82827  eV     1   --> A'             
     e( 67 - 67) =     25.21169  eV     1   --> A'             
     e( 68 - 68) =     25.54687  eV     1   --> A''            
     e( 69 - 69) =     25.56599  eV     1   --> A'             
     e( 70 - 70) =     25.81106  eV     1   --> A'             

 **************************************************************************

 **************************************************************************

                    xk=(   0.01925,   0.01108,   0.00000  )

     point group C_1 (1)    
     there are  1 classes
     the character table:

       E    
A      1.00

     the symmetry operations in each class and the name of the first element:

     E        1
                                                                 

     Band symmetry, C_1 (1)     point group:

     e(  1 -  1) =     -8.53751  eV     1   --> A              
     e(  2 -  2) =     -8.44092  eV     1   --> A              
     e(  3 -  3) =     -8.35492  eV     1   --> A              
     e(  4 -  4) =     -8.24582  eV     1   --> A              
     e(  5 -  5) =     -1.13035  eV     1   --> A              
     e(  6 -  6) =     -0.66225  eV     1   --> A              
     e(  7 -  7) =      0.61616  eV     1   --> A              
     e(  8 -  8) =      1.83300  eV     1   --> A              
     e(  9 -  9) =      3.64845  eV     1   --> A              
     e( 10 - 10) =      5.03048  eV     1   --> A              
     e( 11 - 11) =      5.38484  eV     1   --> A              
     e( 12 - 12) =      5.40654  eV     1   --> A              
     e( 13 - 13) =      5.41245  eV     1   --> A              
     e( 14 - 14) =      5.43484  eV     1   --> A              
     e( 15 - 15) =      5.45573  eV     1   --> A              
     e( 16 - 16) =      5.47670  eV     1   --> A              
     e( 17 - 17) =      5.48177  eV     1   --> A              
     e( 18 - 18) =      5.50608  eV     1   --> A              
     e( 19 - 19) =      9.09890  eV     1   --> A              
     e( 20 - 20) =     10.53326  eV     1   --> A              
     e( 21 - 21) =     11.74029  eV     1   --> A              
     e( 22 - 22) =     11.94006  eV     1   --> A              
     e( 23 - 23) =     11.94523  eV     1   --> A              
     e( 24 - 24) =     12.15925  eV     1   --> A              
     e( 25 - 25) =     12.67010  eV     1   --> A              
     e( 26 - 26) =     12.71578  eV     1   --> A              
     e( 27 - 27) =     12.76469  eV     1   --> A              
     e( 28 - 28) =     12.80338  eV     1   --> A              
     e( 29 - 29) =     13.20801  eV     1   --> A              
     e( 30 - 30) =     13.23816  eV     1   --> A              
     e( 31 - 31) =     13.32846  eV     1   --> A              
     e( 32 - 32) =     13.35747  eV     1   --> A              
     e( 33 - 33) =     13.98104  eV     1   --> A              
     e( 34 - 34) =     15.51839  eV     1   --> A              
     e( 35 - 35) =     15.56773  eV     1   --> A              
     e( 36 - 36) =     15.79753  eV     1   --> A              
     e( 37 - 37) =     15.85615  eV     1   --> A              
     e( 38 - 38) =     15.89405  eV     1   --> A              
     e( 39 - 39) =     16.46177  eV     1   --> A              
     e( 40 - 40) =     16.90664  eV     1   --> A              
     e( 41 - 41) =     16.92751  eV     1   --> A              
     e( 42 - 42) =     17.10074  eV     1   --> A              
     e( 43 - 43) =     17.46343  eV     1   --> A              
     e( 44 - 44) =     17.53842  eV     1   --> A              
     e( 45 - 45) =     17.54724  eV     1   --> A              
     e( 46 - 46) =     17.67212  eV     1   --> A              
     e( 47 - 47) =     17.79963  eV     1   --> A              
     e( 48 - 48) =     17.81456  eV     1   --> A              
     e( 49 - 49) =     19.64092  eV     1   --> A              
     e( 50 - 50) =     19.95131  eV     1   --> A              
     e( 51 - 51) =     19.98258  eV     1   --> A              
     e( 52 - 52) =     20.05016  eV     1   --> A              
     e( 53 - 53) =     20.23000  eV     1   --> A              
     e( 54 - 54) =     20.73674  eV     1   --> A              
     e( 55 - 55) =     21.17103  eV     1   --> A              
     e( 56 - 56) =     21.19898  eV     1   --> A              
     e( 57 - 57) =     21.68926  eV     1   --> A              
     e( 58 - 58) =     21.72645  eV     1   --> A              
     e( 59 - 59) =     21.96602  eV     1   --> A              
     e( 60 - 60) =     21.99461  eV     1   --> A              
     e( 61 - 61) =     22.10383  eV     1   --> A              
     e( 62 - 62) =     22.85540  eV     1   --> A              
     e( 63 - 63) =     23.06417  eV     1   --> A              
     e( 64 - 64) =     23.22006  eV     1   --> A              
     e( 65 - 65) =     23.58488  eV     1   --> A              
     e( 66 - 66) =     24.01485  eV     1   --> A              
     e( 67 - 67) =     25.10853  eV     1   --> A              
     e( 68 - 68) =     25.52805  eV     1   --> A              
     e( 69 - 69) =     25.62618  eV     1   --> A              
     e( 70 - 70) =     25.85274  eV     1   --> A              

 **************************************************************************

 **************************************************************************

                    xk=(   0.03850,   0.02217,   0.00000  )

     Band symmetry, C_1 (1)     point group:

     e(  1 -  1) =     -8.52264  eV     1   --> A              
     e(  2 -  2) =     -8.42634  eV     1   --> A              
     e(  3 -  3) =     -8.34027  eV     1   --> A              
     e(  4 -  4) =     -8.23152  eV     1   --> A              
     e(  5 -  5) =     -1.11288  eV     1   --> A              
     e(  6 -  6) =     -0.64592  eV     1   --> A              
     e(  7 -  7) =      0.63171  eV     1   --> A              
     e(  8 -  8) =      1.84481  eV     1   --> A              
     e(  9 -  9) =      3.65682  eV     1   --> A              
     e( 10 - 10) =      5.03362  eV     1   --> A              
     e( 11 - 11) =      5.29054  eV     1   --> A              
     e( 12 - 12) =      5.31556  eV     1   --> A              
     e( 13 - 13) =      5.35969  eV     1   --> A              
     e( 14 - 14) =      5.37678  eV     1   --> A              
     e( 15 - 15) =      5.38644  eV     1   --> A              
     e( 16 - 16) =      5.41432  eV     1   --> A              
     e( 17 - 17) =      5.45326  eV     1   --> A              
     e( 18 - 18) =      5.48350  eV     1   --> A              
     e( 19 - 19) =      9.12733  eV     1   --> A              
     e( 20 - 20) =     10.53902  eV     1   --> A              
     e( 21 - 21) =     11.82185  eV     1   --> A              
     e( 22 - 22) =     12.01339  eV     1   --> A              
     e( 23 - 23) =     12.02584  eV     1   --> A              
     e( 24 - 24) =     12.23333  eV     1   --> A              
     e( 25 - 25) =     12.55858  eV     1   --> A              
     e( 26 - 26) =     12.66893  eV     1   --> A              
     e( 27 - 27) =     12.75142  eV     1   --> A              
     e( 28 - 28) =     12.83475  eV     1   --> A              
     e( 29 - 29) =     13.16209  eV     1   --> A              
     e( 30 - 30) =     13.27939  eV     1   --> A              
     e( 31 - 31) =     13.29670  eV     1   --> A              
     e( 32 - 32) =     13.40721  eV     1   --> A              
     e( 33 - 33) =     14.01942  eV     1   --> A              
     e( 34 - 34) =     15.33677  eV     1   --> A              
     e( 35 - 35) =     15.49581  eV     1   --> A              
     e( 36 - 36) =     15.70191  eV     1   --> A              
     e( 37 - 37) =     15.78001  eV     1   --> A              
     e( 38 - 38) =     15.88191  eV     1   --> A              
     e( 39 - 39) =     16.26157  eV     1   --> A              
     e( 40 - 40) =     16.80134  eV     1   --> A              
     e( 41 - 41) =     16.88683  eV     1   --> A              
     e( 42 - 42) =     16.93178  eV     1   --> A              
     e( 43 - 43) =     17.44303  eV     1   --> A              
     e( 44 - 44) =     17.62140  eV     1   --> A              
     e( 45 - 45) =     17.69852  eV     1   --> A              
     e( 46 - 46) =     17.85857  eV     1   --> A              
     e( 47 - 47) =     17.87494  eV     1   --> A              
     e( 48 - 48) =     17.97965  eV     1   --> A              
     e( 49 - 49) =     19.74841  eV     1   --> A              
     e( 50 - 50) =     20.07772  eV     1   --> A              
     e( 51 - 51) =     20.09637  eV     1   --> A              
     e( 52 - 52) =     20.13043  eV     1   --> A              
     e( 53 - 53) =     20.26510  eV     1   --> A              
     e( 54 - 54) =     20.85828  eV     1   --> A              
     e( 55 - 55) =     21.13444  eV     1   --> A              
     e( 56 - 56) =     21.24297  eV     1   --> A              
     e( 57 - 57) =     21.64146  eV     1   --> A              
     e( 58 - 58) =     21.78894  eV     1   --> A              
     e( 59 - 59) =     21.87623  eV     1   --> A              
     e( 60 - 60) =     21.97103  eV     1   --> A              
     e( 61 - 61) =     22.21305  eV     1   --> A              
     e( 62 - 62) =     22.78986  eV     1   --> A              
     e( 63 - 63) =     22.99945  eV     1   --> A              
     e( 64 - 64) =     23.22043  eV     1   --> A              
     e( 65 - 65) =     23.66919  eV     1   --> A              
     e( 66 - 66) =     24.36052  eV     1   --> A              
     e( 67 - 67) =     24.89528  eV     1   --> A              
     e( 68 - 68) =     25.46052  eV     1   --> A              
     e( 69 - 69) =     25.73224  eV     1   --> A              
     e( 70 - 70) =     25.95411  eV     1   --> A              

 **************************************************************************

 **************************************************************************

                    xk=(   0.05775,   0.03325,   0.00000  )

     Band symmetry, C_1 (1)     point group:

     e(  1 -  1) =     -8.49793  eV     1   --> A              
     e(  2 -  2) =     -8.40211  eV     1   --> A              
     e(  3 -  3) =     -8.31592  eV     1   --> A              
     e(  4 -  4) =     -8.20774  eV     1   --> A              
     e(  5 -  5) =     -1.08381  eV     1   --> A              
     e(  6 -  6) =     -0.61880  eV     1   --> A              
     e(  7 -  7) =      0.65756  eV     1   --> A              
     e(  8 -  8) =      1.86421  eV     1   --> A              
     e(  9 -  9) =      3.66956  eV     1   --> A              
     e( 10 - 10) =      5.02804  eV     1   --> A              
     e( 11 - 11) =      5.15155  eV     1   --> A              
     e( 12 - 12) =      5.16192  eV     1   --> A              
     e( 13 - 13) =      5.21603  eV     1   --> A              
     e( 14 - 14) =      5.21632  eV     1   --> A              
     e( 15 - 15) =      5.34513  eV     1   --> A              
     e( 16 - 16) =      5.37511  eV     1   --> A              
     e( 17 - 17) =      5.41475  eV     1   --> A              
     e( 18 - 18) =      5.44627  eV     1   --> A              
     e( 19 - 19) =      9.17124  eV     1   --> A              
     e( 20 - 20) =     10.54454  eV     1   --> A              
     e( 21 - 21) =     11.93890  eV     1   --> A              
     e( 22 - 22) =     12.12323  eV     1   --> A              
     e( 23 - 23) =     12.13947  eV     1   --> A              
     e( 24 - 24) =     12.34272  eV     1   --> A              
     e( 25 - 25) =     12.39889  eV     1   --> A              
     e( 26 - 26) =     12.52638  eV     1   --> A              
     e( 27 - 27) =     12.80960  eV     1   --> A              
     e( 28 - 28) =     12.88707  eV     1   --> A              
     e( 29 - 29) =     13.08890  eV     1   --> A              
     e( 30 - 30) =     13.22057  eV     1   --> A              
     e( 31 - 31) =     13.38263  eV     1   --> A              
     e( 32 - 32) =     13.49821  eV     1   --> A              
     e( 33 - 33) =     14.05723  eV     1   --> A              
     e( 34 - 34) =     15.10240  eV     1   --> A              
     e( 35 - 35) =     15.37719  eV     1   --> A              
     e( 36 - 36) =     15.52007  eV     1   --> A              
     e( 37 - 37) =     15.67085  eV     1   --> A              
     e( 38 - 38) =     15.91288  eV     1   --> A              
     e( 39 - 39) =     16.00805  eV     1   --> A              
     e( 40 - 40) =     16.64443  eV     1   --> A              
     e( 41 - 41) =     16.78081  eV     1   --> A              
     e( 42 - 42) =     16.82621  eV     1   --> A              
     e( 43 - 43) =     17.40228  eV     1   --> A              
     e( 44 - 44) =     17.72137  eV     1   --> A              
     e( 45 - 45) =     17.87186  eV     1   --> A              
     e( 46 - 46) =     17.94628  eV     1   --> A              
     e( 47 - 47) =     17.99150  eV     1   --> A              
     e( 48 - 48) =     18.31927  eV     1   --> A              
     e( 49 - 49) =     19.91616  eV     1   --> A              
     e( 50 - 50) =     20.18301  eV     1   --> A              
     e( 51 - 51) =     20.24415  eV     1   --> A              
     e( 52 - 52) =     20.27691  eV     1   --> A              
     e( 53 - 53) =     20.39304  eV     1   --> A              
     e( 54 - 54) =     21.02859  eV     1   --> A              
     e( 55 - 55) =     21.09099  eV     1   --> A              
     e( 56 - 56) =     21.30563  eV     1   --> A              
     e( 57 - 57) =     21.58143  eV     1   --> A              
     e( 58 - 58) =     21.79265  eV     1   --> A              
     e( 59 - 59) =     21.88676  eV     1   --> A              
     e( 60 - 60) =     21.95478  eV     1   --> A              
     e( 61 - 61) =     22.37749  eV     1   --> A              
     e( 62 - 62) =     22.54016  eV     1   --> A              
     e( 63 - 63) =     23.20416  eV     1   --> A              
     e( 64 - 64) =     23.21942  eV     1   --> A              
     e( 65 - 65) =     23.79837  eV     1   --> A              
     e( 66 - 66) =     24.64558  eV     1   --> A              
     e( 67 - 67) =     24.74071  eV     1   --> A              
     e( 68 - 68) =     25.35273  eV     1   --> A              
     e( 69 - 69) =     25.83047  eV     1   --> A              
     e( 70 - 70) =     26.04364  eV     1   --> A              

 **************************************************************************

 **************************************************************************

                    xk=(   0.07701,   0.04434,   0.00000  )

     Band symmetry, C_1 (1)     point group:

     e(  1 -  1) =     -8.46347  eV     1   --> A              
     e(  2 -  2) =     -8.36832  eV     1   --> A              
     e(  3 -  3) =     -8.28199  eV     1   --> A              
     e(  4 -  4) =     -8.17462  eV     1   --> A              
     e(  5 -  5) =     -1.04324  eV     1   --> A              
     e(  6 -  6) =     -0.58109  eV     1   --> A              
     e(  7 -  7) =      0.69360  eV     1   --> A              
     e(  8 -  8) =      1.89075  eV     1   --> A              
     e(  9 -  9) =      3.68427  eV     1   --> A              
     e( 10 - 10) =      4.90899  eV     1   --> A              
     e( 11 - 11) =      4.96230  eV     1   --> A              
     e( 12 - 12) =      5.00601  eV     1   --> A              
     e( 13 - 13) =      5.03022  eV     1   --> A              
     e( 14 - 14) =      5.08318  eV     1   --> A              
     e( 15 - 15) =      5.28968  eV     1   --> A              
     e( 16 - 16) =      5.32146  eV     1   --> A              
     e( 17 - 17) =      5.36037  eV     1   --> A              
     e( 18 - 18) =      5.39375  eV     1   --> A              
     e( 19 - 19) =      9.22715  eV     1   --> A              
     e( 20 - 20) =     10.54607  eV     1   --> A              
     e( 21 - 21) =     12.05535  eV     1   --> A              
     e( 22 - 22) =     12.16164  eV     1   --> A              
     e( 23 - 23) =     12.25184  eV     1   --> A              
     e( 24 - 24) =     12.31506  eV     1   --> A              
     e( 25 - 25) =     12.36676  eV     1   --> A              
     e( 26 - 26) =     12.46727  eV     1   --> A              
     e( 27 - 27) =     12.88614  eV     1   --> A              
     e( 28 - 28) =     12.94587  eV     1   --> A              
     e( 29 - 29) =     13.00235  eV     1   --> A              
     e( 30 - 30) =     13.14083  eV     1   --> A              
     e( 31 - 31) =     13.52249  eV     1   --> A              
     e( 32 - 32) =     13.62964  eV     1   --> A              
     e( 33 - 33) =     14.07782  eV     1   --> A              
     e( 34 - 34) =     14.85311  eV     1   --> A              
     e( 35 - 35) =     15.22624  eV     1   --> A              
     e( 36 - 36) =     15.36127  eV     1   --> A              
     e( 37 - 37) =     15.52253  eV     1   --> A              
     e( 38 - 38) =     15.73985  eV     1   --> A              
     e( 39 - 39) =     15.94104  eV     1   --> A              
     e( 40 - 40) =     16.45814  eV     1   --> A              
     e( 41 - 41) =     16.66036  eV     1   --> A              
     e( 42 - 42) =     16.74068  eV     1   --> A              
     e( 43 - 43) =     17.33902  eV     1   --> A              
     e( 44 - 44) =     17.81847  eV     1   --> A              
     e( 45 - 45) =     18.02390  eV     1   --> A              
     e( 46 - 46) =     18.04148  eV     1   --> A              
     e( 47 - 47) =     18.15653  eV     1   --> A              
     e( 48 - 48) =     18.69128  eV     1   --> A              
     e( 49 - 49) =     20.12154  eV     1   --> A              
     e( 50 - 50) =     20.18127  eV     1   --> A              
     e( 51 - 51) =     20.36844  eV     1   --> A              
     e( 52 - 52) =     20.53481  eV     1   --> A              
     e( 53 - 53) =     20.63472  eV     1   --> A              
     e( 54 - 54) =     21.07086  eV     1   --> A              
     e( 55 - 55) =     21.18244  eV     1   --> A              
     e( 56 - 56) =     21.37375  eV     1   --> A              
     e( 57 - 57) =     21.51922  eV     1   --> A              
     e( 58 - 58) =     21.76687  eV     1   --> A              
     e( 59 - 59) =     21.98944  eV     1   --> A              
     e( 60 - 60) =     22.00960  eV     1   --> A              
     e( 61 - 61) =     22.36380  eV     1   --> A              
     e( 62 - 62) =     22.58540  eV     1   --> A              
     e( 63 - 63) =     23.21864  eV     1   --> A              
     e( 64 - 64) =     23.45513  eV     1   --> A              
     e( 65 - 65) =     23.95824  eV     1   --> A              
     e( 66 - 66) =     24.39377  eV     1   --> A              
     e( 67 - 67) =     25.12753  eV     1   --> A              
     e( 68 - 68) =     25.21600  eV     1   --> A              
     e( 69 - 69) =     25.91727  eV     1   --> A              
     e( 70 - 70) =     25.97121  eV     1   --> A              

 **************************************************************************

 **************************************************************************

                    xk=(   0.09626,   0.05542,   0.00000  )

     Band symmetry, C_1 (1)     point group:

     e(  1 -  1) =     -8.41942  eV     1   --> A              
     e(  2 -  2) =     -8.32514  eV     1   --> A              
     e(  3 -  3) =     -8.23863  eV     1   --> A              
     e(  4 -  4) =     -8.13230  eV     1   --> A              
     e(  5 -  5) =     -0.99130  eV     1   --> A              
     e(  6 -  6) =     -0.53305  eV     1   --> A              
     e(  7 -  7) =      0.73968  eV     1   --> A              
     e(  8 -  8) =      1.92373  eV     1   --> A              
     e(  9 -  9) =      3.69592  eV     1   --> A              
     e( 10 - 10) =      4.68206  eV     1   --> A              
     e( 11 - 11) =      4.72804  eV     1   --> A              
     e( 12 - 12) =      4.75907  eV     1   --> A              
     e( 13 - 13) =      4.81871  eV     1   --> A              
     e( 14 - 14) =      5.08997  eV     1   --> A              
     e( 15 - 15) =      5.21795  eV     1   --> A              
     e( 16 - 16) =      5.25212  eV     1   --> A              
     e( 17 - 17) =      5.28970  eV     1   --> A              
     e( 18 - 18) =      5.32564  eV     1   --> A              
     e( 19 - 19) =      9.29217  eV     1   --> A              
     e( 20 - 20) =     10.54088  eV     1   --> A              
     e( 21 - 21) =     11.96017  eV     1   --> A              
     e( 22 - 22) =     12.03711  eV     1   --> A              
     e( 23 - 23) =     12.31760  eV     1   --> A              
     e( 24 - 24) =     12.37741  eV     1   --> A              
     e( 25 - 25) =     12.43491  eV     1   --> A              
     e( 26 - 26) =     12.57633  eV     1   --> A              
     e( 27 - 27) =     12.92580  eV     1   --> A              
     e( 28 - 28) =     12.95926  eV     1   --> A              
     e( 29 - 29) =     12.97414  eV     1   --> A              
     e( 30 - 30) =     13.05985  eV     1   --> A              
     e( 31 - 31) =     13.71263  eV     1   --> A              
     e( 32 - 32) =     13.79222  eV     1   --> A              
     e( 33 - 33) =     14.08932  eV     1   --> A              
     e( 34 - 34) =     14.62561  eV     1   --> A              
     e( 35 - 35) =     15.05419  eV     1   --> A              
     e( 36 - 36) =     15.27493  eV     1   --> A              
     e( 37 - 37) =     15.36251  eV     1   --> A              
     e( 38 - 38) =     15.48767  eV     1   --> A              
     e( 39 - 39) =     15.95672  eV     1   --> A              
     e( 40 - 40) =     16.26113  eV     1   --> A              
     e( 41 - 41) =     16.57138  eV     1   --> A              
     e( 42 - 42) =     16.62822  eV     1   --> A              
     e( 43 - 43) =     17.25427  eV     1   --> A              
     e( 44 - 44) =     17.90541  eV     1   --> A              
     e( 45 - 45) =     18.08107  eV     1   --> A              
     e( 46 - 46) =     18.19995  eV     1   --> A              
     e( 47 - 47) =     18.35461  eV     1   --> A              
     e( 48 - 48) =     19.07874  eV     1   --> A              
     e( 49 - 49) =     20.13339  eV     1   --> A              
     e( 50 - 50) =     20.31881  eV     1   --> A              
     e( 51 - 51) =     20.46994  eV     1   --> A              
     e( 52 - 52) =     20.83043  eV     1   --> A              
     e( 53 - 53) =     20.91368  eV     1   --> A              
     e( 54 - 54) =     21.12194  eV     1   --> A              
     e( 55 - 55) =     21.27215  eV     1   --> A              
     e( 56 - 56) =     21.44414  eV     1   --> A              
     e( 57 - 57) =     21.46179  eV     1   --> A              
     e( 58 - 58) =     21.82944  eV     1   --> A              
     e( 59 - 59) =     22.02495  eV     1   --> A              
     e( 60 - 60) =     22.14569  eV     1   --> A              
     e( 61 - 61) =     22.38615  eV     1   --> A              
     e( 62 - 62) =     22.81212  eV     1   --> A              
     e( 63 - 63) =     23.22785  eV     1   --> A              
     e( 64 - 64) =     23.74198  eV     1   --> A              
     e( 65 - 65) =     24.12818  eV     1   --> A              
     e( 66 - 66) =     24.17831  eV     1   --> A              
     e( 67 - 67) =     25.07253  eV     1   --> A              
     e( 68 - 68) =     25.49662  eV     1   --> A              
     e( 69 - 69) =     25.93804  eV     1   --> A              
     e( 70 - 70) =     25.99514  eV     1   --> A              

 **************************************************************************

 **************************************************************************

                    xk=(   0.11551,   0.06651,   0.00000  )

     Band symmetry, C_1 (1)     point group:

     e(  1 -  1) =     -8.36596  eV     1   --> A              
     e(  2 -  2) =     -8.27274  eV     1   --> A              
     e(  3 -  3) =     -8.18605  eV     1   --> A              
     e(  4 -  4) =     -8.08099  eV     1   --> A              
     e(  5 -  5) =     -0.92819  eV     1   --> A              
     e(  6 -  6) =     -0.47507  eV     1   --> A              
     e(  7 -  7) =      0.79560  eV     1   --> A              
     e(  8 -  8) =      1.96201  eV     1   --> A              
     e(  9 -  9) =      3.69344  eV     1   --> A              
     e( 10 - 10) =      4.42274  eV     1   --> A              
     e( 11 - 11) =      4.46990  eV     1   --> A              
     e( 12 - 12) =      4.48560  eV     1   --> A              
     e( 13 - 13) =      4.60237  eV     1   --> A              
     e( 14 - 14) =      5.10621  eV     1   --> A              
     e( 15 - 15) =      5.12955  eV     1   --> A              
     e( 16 - 16) =      5.16675  eV     1   --> A              
     e( 17 - 17) =      5.20248  eV     1   --> A              
     e( 18 - 18) =      5.24170  eV     1   --> A              
     e( 19 - 19) =      9.36436  eV     1   --> A              
     e( 20 - 20) =     10.52727  eV     1   --> A              
     e( 21 - 21) =     11.73343  eV     1   --> A              
     e( 22 - 22) =     11.84644  eV     1   --> A              
     e( 23 - 23) =     12.41544  eV     1   --> A              
     e( 24 - 24) =     12.47623  eV     1   --> A              
     e( 25 - 25) =     12.55698  eV     1   --> A              
     e( 26 - 26) =     12.61264  eV     1   --> A              
     e( 27 - 27) =     12.91434  eV     1   --> A              
     e( 28 - 28) =     12.91798  eV     1   --> A              
     e( 29 - 29) =     12.98435  eV     1   --> A              
     e( 30 - 30) =     12.99690  eV     1   --> A              
     e( 31 - 31) =     13.94701  eV     1   --> A              
     e( 32 - 32) =     13.94757  eV     1   --> A              
     e( 33 - 33) =     14.11428  eV     1   --> A              
     e( 34 - 34) =     14.45308  eV     1   --> A              
     e( 35 - 35) =     14.89463  eV     1   --> A              
     e( 36 - 36) =     15.22354  eV     1   --> A              
     e( 37 - 37) =     15.28396  eV     1   --> A              
     e( 38 - 38) =     15.29885  eV     1   --> A              
     e( 39 - 39) =     15.96139  eV     1   --> A              
     e( 40 - 40) =     16.07042  eV     1   --> A              
     e( 41 - 41) =     16.48913  eV     1   --> A              
     e( 42 - 42) =     16.50774  eV     1   --> A              
     e( 43 - 43) =     17.15259  eV     1   --> A              
     e( 44 - 44) =     17.97803  eV     1   --> A              
     e( 45 - 45) =     18.10744  eV     1   --> A              
     e( 46 - 46) =     18.34676  eV     1   --> A              
     e( 47 - 47) =     18.56804  eV     1   --> A              
     e( 48 - 48) =     19.46372  eV     1   --> A              
     e( 49 - 49) =     20.06425  eV     1   --> A              
     e( 50 - 50) =     20.44746  eV     1   --> A              
     e( 51 - 51) =     20.51863  eV     1   --> A              
     e( 52 - 52) =     21.10751  eV     1   --> A              
     e( 53 - 53) =     21.19446  eV     1   --> A              
     e( 54 - 54) =     21.30301  eV     1   --> A              
     e( 55 - 55) =     21.35981  eV     1   --> A              
     e( 56 - 56) =     21.42021  eV     1   --> A              
     e( 57 - 57) =     21.54490  eV     1   --> A              
     e( 58 - 58) =     21.94840  eV     1   --> A              
     e( 59 - 59) =     21.97576  eV     1   --> A              
     e( 60 - 60) =     22.27985  eV     1   --> A              
     e( 61 - 61) =     22.69073  eV     1   --> A              
     e( 62 - 62) =     23.00284  eV     1   --> A              
     e( 63 - 63) =     23.26964  eV     1   --> A              
     e( 64 - 64) =     24.05171  eV     1   --> A              
     e( 65 - 65) =     24.06468  eV     1   --> A              
     e( 66 - 66) =     24.27024  eV     1   --> A              
     e( 67 - 67) =     24.96730  eV     1   --> A              
     e( 68 - 68) =     25.73836  eV     1   --> A              
     e( 69 - 69) =     26.06481  eV     1   --> A              
     e( 70 - 70) =     26.06513  eV     1   --> A              

 **************************************************************************

 **************************************************************************

                    xk=(   0.13476,   0.07759,   0.00000  )

     Band symmetry, C_1 (1)     point group:

     e(  1 -  1) =     -8.30333  eV     1   --> A              
     e(  2 -  2) =     -8.21138  eV     1   --> A              
     e(  3 -  3) =     -8.12450  eV     1   --> A              
     e(  4 -  4) =     -8.02097  eV     1   --> A              
     e(  5 -  5) =     -0.85416  eV     1   --> A              
     e(  6 -  6) =     -0.40767  eV     1   --> A              
     e(  7 -  7) =      0.86106  eV     1   --> A              
     e(  8 -  8) =      2.00384  eV     1   --> A              
     e(  9 -  9) =      3.65322  eV     1   --> A              
     e( 10 - 10) =      4.14566  eV     1   --> A              
     e( 11 - 11) =      4.19425  eV     1   --> A              
     e( 12 - 12) =      4.19792  eV     1   --> A              
     e( 13 - 13) =      4.41301  eV     1   --> A              
     e( 14 - 14) =      5.02430  eV     1   --> A              
     e( 15 - 15) =      5.06525  eV     1   --> A              
     e( 16 - 16) =      5.09747  eV     1   --> A              
     e( 17 - 17) =      5.12647  eV     1   --> A              
     e( 18 - 18) =      5.14182  eV     1   --> A              
     e( 19 - 19) =      9.44247  eV     1   --> A              
     e( 20 - 20) =     10.50425  eV     1   --> A              
     e( 21 - 21) =     11.49937  eV     1   --> A              
     e( 22 - 22) =     11.62030  eV     1   --> A              
     e( 23 - 23) =     12.52232  eV     1   --> A              
     e( 24 - 24) =     12.52397  eV     1   --> A              
     e( 25 - 25) =     12.55733  eV     1   --> A              
     e( 26 - 26) =     12.64167  eV     1   --> A              
     e( 27 - 27) =     12.78548  eV     1   --> A              
     e( 28 - 28) =     12.91903  eV     1   --> A              
     e( 29 - 29) =     12.97880  eV     1   --> A              
     e( 30 - 30) =     12.99173  eV     1   --> A              
     e( 31 - 31) =     14.00895  eV     1   --> A              
     e( 32 - 32) =     14.10570  eV     1   --> A              
     e( 33 - 33) =     14.20635  eV     1   --> A              
     e( 34 - 34) =     14.33406  eV     1   --> A              
     e( 35 - 35) =     14.83550  eV     1   --> A              
     e( 36 - 36) =     15.15456  eV     1   --> A              
     e( 37 - 37) =     15.25679  eV     1   --> A              
     e( 38 - 38) =     15.37599  eV     1   --> A              
     e( 39 - 39) =     15.90357  eV     1   --> A              
     e( 40 - 40) =     15.96726  eV     1   --> A              
     e( 41 - 41) =     16.32682  eV     1   --> A              
     e( 42 - 42) =     16.46248  eV     1   --> A              
     e( 43 - 43) =     17.04356  eV     1   --> A              
     e( 44 - 44) =     18.03324  eV     1   --> A              
     e( 45 - 45) =     18.09507  eV     1   --> A              
     e( 46 - 46) =     18.48397  eV     1   --> A              
     e( 47 - 47) =     18.77816  eV     1   --> A              
     e( 48 - 48) =     19.80094  eV     1   --> A              
     e( 49 - 49) =     20.00351  eV     1   --> A              
     e( 50 - 50) =     20.50243  eV     1   --> A              
     e( 51 - 51) =     20.55773  eV     1   --> A              
     e( 52 - 52) =     21.21615  eV     1   --> A              
     e( 53 - 53) =     21.42629  eV     1   --> A              
     e( 54 - 54) =     21.46523  eV     1   --> A              
     e( 55 - 55) =     21.48572  eV     1   --> A              
     e( 56 - 56) =     21.61453  eV     1   --> A              
     e( 57 - 57) =     21.77056  eV     1   --> A              
     e( 58 - 58) =     21.87583  eV     1   --> A              
     e( 59 - 59) =     22.15509  eV     1   --> A              
     e( 60 - 60) =     22.39227  eV     1   --> A              
     e( 61 - 61) =     23.08860  eV     1   --> A              
     e( 62 - 62) =     23.11432  eV     1   --> A              
     e( 63 - 63) =     23.38620  eV     1   --> A              
     e( 64 - 64) =     24.13315  eV     1   --> A              
     e( 65 - 65) =     24.32058  eV     1   --> A              
     e( 66 - 66) =     24.37489  eV     1   --> A              
     e( 67 - 67) =     24.96369  eV     1   --> A              
     e( 68 - 68) =     25.80699  eV     1   --> A              
     e( 69 - 69) =     25.80920  eV     1   --> A              
     e( 70 - 70) =     26.12432  eV     1   --> A              

 **************************************************************************

 **************************************************************************

                    xk=(   0.15401,   0.08868,   0.00000  )

     Band symmetry, C_1 (1)     point group:

     e(  1 -  1) =     -8.23184  eV     1   --> A              
     e(  2 -  2) =     -8.14137  eV     1   --> A              
     e(  3 -  3) =     -8.05431  eV     1   --> A              
     e(  4 -  4) =     -7.95255  eV     1   --> A              
     e(  5 -  5) =     -0.76954  eV     1   --> A              
     e(  6 -  6) =     -0.33161  eV     1   --> A              
     e(  7 -  7) =      0.93572  eV     1   --> A              
     e(  8 -  8) =      2.04632  eV     1   --> A              
     e(  9 -  9) =      3.54080  eV     1   --> A              
     e( 10 - 10) =      3.85941  eV     1   --> A              
     e( 11 - 11) =      3.89236  eV     1   --> A              
     e( 12 - 12) =      3.92141  eV     1   --> A              
     e( 13 - 13) =      4.29168  eV     1   --> A              
     e( 14 - 14) =      4.90245  eV     1   --> A              
     e( 15 - 15) =      4.94771  eV     1   --> A              
     e( 16 - 16) =      4.97703  eV     1   --> A              
     e( 17 - 17) =      5.02609  eV     1   --> A              
     e( 18 - 18) =      5.14654  eV     1   --> A              
     e( 19 - 19) =      9.52558  eV     1   --> A              
     e( 20 - 20) =     10.47124  eV     1   --> A              
     e( 21 - 21) =     11.26198  eV     1   --> A              
     e( 22 - 22) =     11.38507  eV     1   --> A              
     e( 23 - 23) =     12.47178  eV     1   --> A              
     e( 24 - 24) =     12.47510  eV     1   --> A              
     e( 25 - 25) =     12.50890  eV     1   --> A              
     e( 26 - 26) =     12.58319  eV     1   --> A              
     e( 27 - 27) =     12.80447  eV     1   --> A              
     e( 28 - 28) =     12.82338  eV     1   --> A              
     e( 29 - 29) =     13.02155  eV     1   --> A              
     e( 30 - 30) =     13.10203  eV     1   --> A              
     e( 31 - 31) =     13.91387  eV     1   --> A              
     e( 32 - 32) =     13.99040  eV     1   --> A              
     e( 33 - 33) =     14.21679  eV     1   --> A              
     e( 34 - 34) =     14.45231  eV     1   --> A              
     e( 35 - 35) =     14.92594  eV     1   --> A              
     e( 36 - 36) =     15.17538  eV     1   --> A              
     e( 37 - 37) =     15.41125  eV     1   --> A              
     e( 38 - 38) =     15.54408  eV     1   --> A              
     e( 39 - 39) =     15.78095  eV     1   --> A              
     e( 40 - 40) =     16.00814  eV     1   --> A              
     e( 41 - 41) =     16.15211  eV     1   --> A              
     e( 42 - 42) =     16.43510  eV     1   --> A              
     e( 43 - 43) =     16.94582  eV     1   --> A              
     e( 44 - 44) =     18.03988  eV     1   --> A              
     e( 45 - 45) =     18.06907  eV     1   --> A              
     e( 46 - 46) =     18.61455  eV     1   --> A              
     e( 47 - 47) =     18.96685  eV     1   --> A              
     e( 48 - 48) =     19.97985  eV     1   --> A              
     e( 49 - 49) =     19.98915  eV     1   --> A              
     e( 50 - 50) =     20.52607  eV     1   --> A              
     e( 51 - 51) =     20.72738  eV     1   --> A              
     e( 52 - 52) =     21.17056  eV     1   --> A              
     e( 53 - 53) =     21.44854  eV     1   --> A              
     e( 54 - 54) =     21.55814  eV     1   --> A              
     e( 55 - 55) =     21.72478  eV     1   --> A              
     e( 56 - 56) =     21.91578  eV     1   --> A              
     e( 57 - 57) =     22.00622  eV     1   --> A              
     e( 58 - 58) =     22.09610  eV     1   --> A              
     e( 59 - 59) =     22.30623  eV     1   --> A              
     e( 60 - 60) =     22.45861  eV     1   --> A              
     e( 61 - 61) =     23.11406  eV     1   --> A              
     e( 62 - 62) =     23.59090  eV     1   --> A              
     e( 63 - 63) =     23.62485  eV     1   --> A              
     e( 64 - 64) =     24.29022  eV     1   --> A              
     e( 65 - 65) =     24.37562  eV     1   --> A              
     e( 66 - 66) =     24.69067  eV     1   --> A              
     e( 67 - 67) =     25.00500  eV     1   --> A              
     e( 68 - 68) =     25.63221  eV     1   --> A              
     e( 69 - 69) =     25.87973  eV     1   --> A              
     e( 70 - 70) =     26.16563  eV     1   --> A              

 **************************************************************************

 **************************************************************************

                    xk=(   0.17326,   0.09976,   0.00000  )

     Band symmetry, C_1 (1)     point group:

     e(  1 -  1) =     -8.15184  eV     1   --> A              
     e(  2 -  2) =     -8.06305  eV     1   --> A              
     e(  3 -  3) =     -7.97586  eV     1   --> A              
     e(  4 -  4) =     -7.87613  eV     1   --> A              
     e(  5 -  5) =     -0.67480  eV     1   --> A              
     e(  6 -  6) =     -0.24791  eV     1   --> A              
     e(  7 -  7) =      1.01909  eV     1   --> A              
     e(  8 -  8) =      2.08441  eV     1   --> A              
     e(  9 -  9) =      3.34803  eV     1   --> A              
     e( 10 - 10) =      3.57085  eV     1   --> A              
     e( 11 - 11) =      3.58553  eV     1   --> A              
     e( 12 - 12) =      3.65079  eV     1   --> A              
     e( 13 - 13) =      4.25147  eV     1   --> A              
     e( 14 - 14) =      4.76478  eV     1   --> A              
     e( 15 - 15) =      4.81450  eV     1   --> A              
     e( 16 - 16) =      4.83960  eV     1   --> A              
     e( 17 - 17) =      4.89485  eV     1   --> A              
     e( 18 - 18) =      5.16691  eV     1   --> A              
     e( 19 - 19) =      9.61276  eV     1   --> A              
     e( 20 - 20) =     10.42790  eV     1   --> A              
     e( 21 - 21) =     11.02249  eV     1   --> A              
     e( 22 - 22) =     11.14645  eV     1   --> A              
     e( 23 - 23) =     12.19291  eV     1   --> A              
     e( 24 - 24) =     12.38738  eV     1   --> A              
     e( 25 - 25) =     12.44246  eV     1   --> A              
     e( 26 - 26) =     12.45918  eV     1   --> A              
     e( 27 - 27) =     12.83080  eV     1   --> A              
     e( 28 - 28) =     12.93543  eV     1   --> A              
     e( 29 - 29) =     13.10561  eV     1   --> A              
     e( 30 - 30) =     13.22281  eV     1   --> A              
     e( 31 - 31) =     13.71194  eV     1   --> A              
     e( 32 - 32) =     13.81221  eV     1   --> A              
     e( 33 - 33) =     14.07417  eV     1   --> A              
     e( 34 - 34) =     14.63260  eV     1   --> A              
     e( 35 - 35) =     15.08434  eV     1   --> A              
     e( 36 - 36) =     15.21444  eV     1   --> A              
     e( 37 - 37) =     15.64307  eV     1   --> A              
     e( 38 - 38) =     15.71791  eV     1   --> A              
     e( 39 - 39) =     15.76328  eV     1   --> A              
     e( 40 - 40) =     16.03094  eV     1   --> A              
     e( 41 - 41) =     16.14799  eV     1   --> A              
     e( 42 - 42) =     16.44802  eV     1   --> A              
     e( 43 - 43) =     16.89532  eV     1   --> A              
     e( 44 - 44) =     17.94368  eV     1   --> A              
     e( 45 - 45) =     18.08493  eV     1   --> A              
     e( 46 - 46) =     18.74193  eV     1   --> A              
     e( 47 - 47) =     19.12222  eV     1   --> A              
     e( 48 - 48) =     20.01115  eV     1   --> A              
     e( 49 - 49) =     20.02486  eV     1   --> A              
     e( 50 - 50) =     20.54595  eV     1   --> A              
     e( 51 - 51) =     21.04550  eV     1   --> A              
     e( 52 - 52) =     21.06704  eV     1   --> A              
     e( 53 - 53) =     21.45925  eV     1   --> A              
     e( 54 - 54) =     21.54218  eV     1   --> A              
     e( 55 - 55) =     21.94739  eV     1   --> A              
     e( 56 - 56) =     22.10396  eV     1   --> A              
     e( 57 - 57) =     22.37231  eV     1   --> A              
     e( 58 - 58) =     22.43589  eV     1   --> A              
     e( 59 - 59) =     22.43685  eV     1   --> A              
     e( 60 - 60) =     22.45796  eV     1   --> A              
     e( 61 - 61) =     23.23710  eV     1   --> A              
     e( 62 - 62) =     23.98898  eV     1   --> A              
     e( 63 - 63) =     24.09790  eV     1   --> A              
     e( 64 - 64) =     24.26789  eV     1   --> A              
     e( 65 - 65) =     24.69962  eV     1   --> A              
     e( 66 - 66) =     24.89581  eV     1   --> A              
     e( 67 - 67) =     24.98670  eV     1   --> A              
     e( 68 - 68) =     25.69871  eV     1   --> A              
     e( 69 - 69) =     25.99338  eV     1   --> A              
     e( 70 - 70) =     26.17556  eV     1   --> A              

 **************************************************************************

 **************************************************************************

                    xk=(   0.19251,   0.11085,   0.00000  )

     Band symmetry, C_1 (1)     point group:

     e(  1 -  1) =     -8.06377  eV     1   --> A              
     e(  2 -  2) =     -7.97688  eV     1   --> A              
     e(  3 -  3) =     -7.88963  eV     1   --> A              
     e(  4 -  4) =     -7.79219  eV     1   --> A              
     e(  5 -  5) =     -0.57057  eV     1   --> A              
     e(  6 -  6) =     -0.15803  eV     1   --> A              
     e(  7 -  7) =      1.11049  eV     1   --> A              
     e(  8 -  8) =      2.10900  eV     1   --> A              
     e(  9 -  9) =      3.10532  eV     1   --> A              
     e( 10 - 10) =      3.27849  eV     1   --> A              
     e( 11 - 11) =      3.28612  eV     1   --> A              
     e( 12 - 12) =      3.39912  eV     1   --> A              
     e( 13 - 13) =      4.26467  eV     1   --> A              
     e( 14 - 14) =      4.61361  eV     1   --> A              
     e( 15 - 15) =      4.66632  eV     1   --> A              
     e( 16 - 16) =      4.68628  eV     1   --> A              
     e( 17 - 17) =      4.74876  eV     1   --> A              
     e( 18 - 18) =      5.18574  eV     1   --> A              
     e( 19 - 19) =      9.70274  eV     1   --> A              
     e( 20 - 20) =     10.37415  eV     1   --> A              
     e( 21 - 21) =     10.78080  eV     1   --> A              
     e( 22 - 22) =     10.90610  eV     1   --> A              
     e( 23 - 23) =     11.88552  eV     1   --> A              
     e( 24 - 24) =     12.19725  eV     1   --> A              
     e( 25 - 25) =     12.31320  eV     1   --> A              
     e( 26 - 26) =     12.39929  eV     1   --> A              
     e( 27 - 27) =     12.93759  eV     1   --> A              
     e( 28 - 28) =     13.05699  eV     1   --> A              
     e( 29 - 29) =     13.21122  eV     1   --> A              
     e( 30 - 30) =     13.34397  eV     1   --> A              
     e( 31 - 31) =     13.47461  eV     1   --> A              
     e( 32 - 32) =     13.62611  eV     1   --> A              
     e( 33 - 33) =     13.92210  eV     1   --> A              
     e( 34 - 34) =     14.71303  eV     1   --> A              
     e( 35 - 35) =     15.18503  eV     1   --> A              
     e( 36 - 36) =     15.24735  eV     1   --> A              
     e( 37 - 37) =     15.59902  eV     1   --> A              
     e( 38 - 38) =     15.68957  eV     1   --> A              
     e( 39 - 39) =     15.92858  eV     1   --> A              
     e( 40 - 40) =     16.24786  eV     1   --> A              
     e( 41 - 41) =     16.42727  eV     1   --> A              
     e( 42 - 42) =     16.58706  eV     1   --> A              
     e( 43 - 43) =     16.94912  eV     1   --> A              
     e( 44 - 44) =     17.81489  eV     1   --> A              
     e( 45 - 45) =     18.08203  eV     1   --> A              
     e( 46 - 46) =     18.87018  eV     1   --> A              
     e( 47 - 47) =     19.24649  eV     1   --> A              
     e( 48 - 48) =     20.01668  eV     1   --> A              
     e( 49 - 49) =     20.09621  eV     1   --> A              
     e( 50 - 50) =     20.57223  eV     1   --> A              
     e( 51 - 51) =     20.92101  eV     1   --> A              
     e( 52 - 52) =     21.28384  eV     1   --> A              
     e( 53 - 53) =     21.46807  eV     1   --> A              
     e( 54 - 54) =     21.65394  eV     1   --> A              
     e( 55 - 55) =     22.07029  eV     1   --> A              
     e( 56 - 56) =     22.34435  eV     1   --> A              
     e( 57 - 57) =     22.37420  eV     1   --> A              
     e( 58 - 58) =     22.52020  eV     1   --> A              
     e( 59 - 59) =     22.63285  eV     1   --> A              
     e( 60 - 60) =     22.88564  eV     1   --> A              
     e( 61 - 61) =     23.55733  eV     1   --> A              
     e( 62 - 62) =     24.29046  eV     1   --> A              
     e( 63 - 63) =     24.44363  eV     1   --> A              
     e( 64 - 64) =     24.61864  eV     1   --> A              
     e( 65 - 65) =     24.69334  eV     1   --> A              
     e( 66 - 66) =     25.04325  eV     1   --> A              
     e( 67 - 67) =     25.25510  eV     1   --> A              
     e( 68 - 68) =     25.93613  eV     1   --> A              
     e( 69 - 69) =     26.14070  eV     1   --> A              
     e( 70 - 70) =     26.15861  eV     1   --> A              

 **************************************************************************

 **************************************************************************

                    xk=(   0.21177,   0.12193,   0.00000  )

     Band symmetry, C_1 (1)     point group:

     e(  1 -  1) =     -7.96813  eV     1   --> A              
     e(  2 -  2) =     -7.88336  eV     1   --> A              
     e(  3 -  3) =     -7.79616  eV     1   --> A              
     e(  4 -  4) =     -7.70127  eV     1   --> A              
     e(  5 -  5) =     -0.45773  eV     1   --> A              
     e(  6 -  6) =     -0.06407  eV     1   --> A              
     e(  7 -  7) =      1.20892  eV     1   --> A              
     e(  8 -  8) =      2.10390  eV     1   --> A              
     e(  9 -  9) =      2.84202  eV     1   --> A              
     e( 10 - 10) =      2.97573  eV     1   --> A              
     e( 11 - 11) =      3.01066  eV     1   --> A              
     e( 12 - 12) =      3.18564  eV     1   --> A              
     e( 13 - 13) =      4.29444  eV     1   --> A              
     e( 14 - 14) =      4.46105  eV     1   --> A              
     e( 15 - 15) =      4.50415  eV     1   --> A              
     e( 16 - 16) =      4.51814  eV     1   --> A              
     e( 17 - 17) =      4.58877  eV     1   --> A              
     e( 18 - 18) =      5.20152  eV     1   --> A              
     e( 19 - 19) =      9.79362  eV     1   --> A              
     e( 20 - 20) =     10.31022  eV     1   --> A              
     e( 21 - 21) =     10.53627  eV     1   --> A              
     e( 22 - 22) =     10.66426  eV     1   --> A              
     e( 23 - 23) =     11.57026  eV     1   --> A              
     e( 24 - 24) =     11.93363  eV     1   --> A              
     e( 25 - 25) =     12.25238  eV     1   --> A              
     e( 26 - 26) =     12.34149  eV     1   --> A              
     e( 27 - 27) =     13.05936  eV     1   --> A              
     e( 28 - 28) =     13.18378  eV     1   --> A              
     e( 29 - 29) =     13.20765  eV     1   --> A              
     e( 30 - 30) =     13.32966  eV     1   --> A              
     e( 31 - 31) =     13.45868  eV     1   --> A              
     e( 32 - 32) =     13.49364  eV     1   --> A              
     e( 33 - 33) =     13.78108  eV     1   --> A              
     e( 34 - 34) =     14.71618  eV     1   --> A              
     e( 35 - 35) =     15.08382  eV     1   --> A              
     e( 36 - 36) =     15.38887  eV     1   --> A              
     e( 37 - 37) =     15.40285  eV     1   --> A              
     e( 38 - 38) =     15.62963  eV     1   --> A              
     e( 39 - 39) =     15.94483  eV     1   --> A              
     e( 40 - 40) =     16.65582  eV     1   --> A              
     e( 41 - 41) =     16.81509  eV     1   --> A              
     e( 42 - 42) =     16.91201  eV     1   --> A              
     e( 43 - 43) =     17.14708  eV     1   --> A              
     e( 44 - 44) =     17.66946  eV     1   --> A              
     e( 45 - 45) =     18.06275  eV     1   --> A              
     e( 46 - 46) =     19.00479  eV     1   --> A              
     e( 47 - 47) =     19.35438  eV     1   --> A              
     e( 48 - 48) =     20.01150  eV     1   --> A              
     e( 49 - 49) =     20.21770  eV     1   --> A              
     e( 50 - 50) =     20.60689  eV     1   --> A              
     e( 51 - 51) =     20.74425  eV     1   --> A              
     e( 52 - 52) =     21.29733  eV     1   --> A              
     e( 53 - 53) =     21.48261  eV     1   --> A              
     e( 54 - 54) =     22.02466  eV     1   --> A              
     e( 55 - 55) =     22.09845  eV     1   --> A              
     e( 56 - 56) =     22.22904  eV     1   --> A              
     e( 57 - 57) =     22.59842  eV     1   --> A              
     e( 58 - 58) =     22.59952  eV     1   --> A              
     e( 59 - 59) =     22.91713  eV     1   --> A              
     e( 60 - 60) =     23.31226  eV     1   --> A              
     e( 61 - 61) =     24.01337  eV     1   --> A              
     e( 62 - 62) =     24.24976  eV     1   --> A              
     e( 63 - 63) =     24.62893  eV     1   --> A              
     e( 64 - 64) =     24.94821  eV     1   --> A              
     e( 65 - 65) =     25.14091  eV     1   --> A              
     e( 66 - 66) =     25.36660  eV     1   --> A              
     e( 67 - 67) =     25.49828  eV     1   --> A              
     e( 68 - 68) =     26.06269  eV     1   --> A              
     e( 69 - 69) =     26.23492  eV     1   --> A              
     e( 70 - 70) =     26.38021  eV     1   --> A              

 **************************************************************************

 **************************************************************************

                    xk=(   0.23102,   0.13302,   0.00000  )

     Band symmetry, C_1 (1)     point group:

     e(  1 -  1) =     -7.86553  eV     1   --> A              
     e(  2 -  2) =     -7.78310  eV     1   --> A              
     e(  3 -  3) =     -7.69611  eV     1   --> A              
     e(  4 -  4) =     -7.60404  eV     1   --> A              
     e(  5 -  5) =     -0.33757  eV     1   --> A              
     e(  6 -  6) =      0.03091  eV     1   --> A              
     e(  7 -  7) =      1.31262  eV     1   --> A              
     e(  8 -  8) =      2.04634  eV     1   --> A              
     e(  9 -  9) =      2.57489  eV     1   --> A              
     e( 10 - 10) =      2.68134  eV     1   --> A              
     e( 11 - 11) =      2.75062  eV     1   --> A              
     e( 12 - 12) =      3.03547  eV     1   --> A              
     e( 13 - 13) =      4.22289  eV     1   --> A              
     e( 14 - 14) =      4.32927  eV     1   --> A              
     e( 15 - 15) =      4.33650  eV     1   --> A              
     e( 16 - 16) =      4.41268  eV     1   --> A              
     e( 17 - 17) =      4.41613  eV     1   --> A              
     e( 18 - 18) =      5.21269  eV     1   --> A              
     e( 19 - 19) =      9.88257  eV     1   --> A              
     e( 20 - 20) =     10.23676  eV     1   --> A              
     e( 21 - 21) =     10.28836  eV     1   --> A              
     e( 22 - 22) =     10.42072  eV     1   --> A              
     e( 23 - 23) =     11.25592  eV     1   --> A              
     e( 24 - 24) =     11.67101  eV     1   --> A              
     e( 25 - 25) =     12.20495  eV     1   --> A              
     e( 26 - 26) =     12.29071  eV     1   --> A              
     e( 27 - 27) =     12.96738  eV     1   --> A              
     e( 28 - 28) =     13.18495  eV     1   --> A              
     e( 29 - 29) =     13.27278  eV     1   --> A              
     e( 30 - 30) =     13.36442  eV     1   --> A              
     e( 31 - 31) =     13.45766  eV     1   --> A              
     e( 32 - 32) =     13.63408  eV     1   --> A              
     e( 33 - 33) =     13.66720  eV     1   --> A              
     e( 34 - 34) =     14.68648  eV     1   --> A              
     e( 35 - 35) =     14.93601  eV     1   --> A              
     e( 36 - 36) =     15.15163  eV     1   --> A              
     e( 37 - 37) =     15.51412  eV     1   --> A              
     e( 38 - 38) =     15.55354  eV     1   --> A              
     e( 39 - 39) =     15.86677  eV     1   --> A              
     e( 40 - 40) =     17.09293  eV     1   --> A              
     e( 41 - 41) =     17.26674  eV     1   --> A              
     e( 42 - 42) =     17.28592  eV     1   --> A              
     e( 43 - 43) =     17.46092  eV     1   --> A              
     e( 44 - 44) =     17.57539  eV     1   --> A              
     e( 45 - 45) =     18.02923  eV     1   --> A              
     e( 46 - 46) =     19.15449  eV     1   --> A              
     e( 47 - 47) =     19.46074  eV     1   --> A              
     e( 48 - 48) =     20.02022  eV     1   --> A              
     e( 49 - 49) =     20.35661  eV     1   --> A              
     e( 50 - 50) =     20.55846  eV     1   --> A              
     e( 51 - 51) =     20.64776  eV     1   --> A              
     e( 52 - 52) =     21.28332  eV     1   --> A              
     e( 53 - 53) =     21.50468  eV     1   --> A              
     e( 54 - 54) =     22.04602  eV     1   --> A              
     e( 55 - 55) =     22.09398  eV     1   --> A              
     e( 56 - 56) =     22.44862  eV     1   --> A              
     e( 57 - 57) =     22.67035  eV     1   --> A              
     e( 58 - 58) =     22.85763  eV     1   --> A              
     e( 59 - 59) =     23.23555  eV     1   --> A              
     e( 60 - 60) =     23.65433  eV     1   --> A              
     e( 61 - 61) =     24.08626  eV     1   --> A              
     e( 62 - 62) =     24.53064  eV     1   --> A              
     e( 63 - 63) =     24.83467  eV     1   --> A              
     e( 64 - 64) =     25.45436  eV     1   --> A              
     e( 65 - 65) =     25.62259  eV     1   --> A              
     e( 66 - 66) =     25.65055  eV     1   --> A              
     e( 67 - 67) =     25.74405  eV     1   --> A              
     e( 68 - 68) =     25.97628  eV     1   --> A              
     e( 69 - 69) =     26.56009  eV     1   --> A              
     e( 70 - 70) =     26.66131  eV     1   --> A              

 **************************************************************************

 **************************************************************************

                    xk=(   0.25027,   0.14410,   0.00000  )

     Band symmetry, C_1 (1)     point group:

     e(  1 -  1) =     -7.75667  eV     1   --> A              
     e(  2 -  2) =     -7.67681  eV     1   --> A              
     e(  3 -  3) =     -7.59023  eV     1   --> A              
     e(  4 -  4) =     -7.50125  eV     1   --> A              
     e(  5 -  5) =     -0.21202  eV     1   --> A              
     e(  6 -  6) =      0.12239  eV     1   --> A              
     e(  7 -  7) =      1.41785  eV     1   --> A              
     e(  8 -  8) =      1.92267  eV     1   --> A              
     e(  9 -  9) =      2.31401  eV     1   --> A              
     e( 10 - 10) =      2.40110  eV     1   --> A              
     e( 11 - 11) =      2.51284  eV     1   --> A              
     e( 12 - 12) =      2.96394  eV     1   --> A              
     e( 13 - 13) =      4.04216  eV     1   --> A              
     e( 14 - 14) =      4.14239  eV     1   --> A              
     e( 15 - 15) =      4.14386  eV     1   --> A              
     e( 16 - 16) =      4.23227  eV     1   --> A              
     e( 17 - 17) =      4.47092  eV     1   --> A              
     e( 18 - 18) =      5.21761  eV     1   --> A              
     e( 19 - 19) =      9.96543  eV     1   --> A              
     e( 20 - 20) =     10.03702  eV     1   --> A              
     e( 21 - 21) =     10.15499  eV     1   --> A              
     e( 22 - 22) =     10.17540  eV     1   --> A              
     e( 23 - 23) =     10.94809  eV     1   --> A              
     e( 24 - 24) =     11.41751  eV     1   --> A              
     e( 25 - 25) =     12.16840  eV     1   --> A              
     e( 26 - 26) =     12.24852  eV     1   --> A              
     e( 27 - 27) =     12.74810  eV     1   --> A              
     e( 28 - 28) =     13.18782  eV     1   --> A              
     e( 29 - 29) =     13.30039  eV     1   --> A              
     e( 30 - 30) =     13.48385  eV     1   --> A              
     e( 31 - 31) =     13.59411  eV     1   --> A              
     e( 32 - 32) =     13.60134  eV     1   --> A              
     e( 33 - 33) =     13.78424  eV     1   --> A              
     e( 34 - 34) =     14.65074  eV     1   --> A              
     e( 35 - 35) =     14.76080  eV     1   --> A              
     e( 36 - 36) =     14.90817  eV     1   --> A              
     e( 37 - 37) =     15.36485  eV     1   --> A              
     e( 38 - 38) =     15.70019  eV     1   --> A              
     e( 39 - 39) =     15.74152  eV     1   --> A              
     e( 40 - 40) =     17.27284  eV     1   --> A              
     e( 41 - 41) =     17.51526  eV     1   --> A              
     e( 42 - 42) =     17.75311  eV     1   --> A              
     e( 43 - 43) =     17.82471  eV     1   --> A              
     e( 44 - 44) =     17.91527  eV     1   --> A              
     e( 45 - 45) =     17.98229  eV     1   --> A              
     e( 46 - 46) =     19.33370  eV     1   --> A              
     e( 47 - 47) =     19.57396  eV     1   --> A              
     e( 48 - 48) =     20.04631  eV     1   --> A              
     e( 49 - 49) =     20.39513  eV     1   --> A              
     e( 50 - 50) =     20.50093  eV     1   --> A              
     e( 51 - 51) =     20.68908  eV     1   --> A              
     e( 52 - 52) =     21.29303  eV     1   --> A              
     e( 53 - 53) =     21.53252  eV     1   --> A              
     e( 54 - 54) =     21.85233  eV     1   --> A              
     e( 55 - 55) =     22.09629  eV     1   --> A              
     e( 56 - 56) =     22.74944  eV     1   --> A              
     e( 57 - 57) =     22.85709  eV     1   --> A              
     e( 58 - 58) =     23.12787  eV     1   --> A              
     e( 59 - 59) =     23.54715  eV     1   --> A              
     e( 60 - 60) =     23.69000  eV     1   --> A              
     e( 61 - 61) =     24.12821  eV     1   --> A              
     e( 62 - 62) =     25.06735  eV     1   --> A              
     e( 63 - 63) =     25.19177  eV     1   --> A              
     e( 64 - 64) =     25.69219  eV     1   --> A              
     e( 65 - 65) =     25.79601  eV     1   --> A              
     e( 66 - 66) =     26.00883  eV     1   --> A              
     e( 67 - 67) =     26.13336  eV     1   --> A              
     e( 68 - 68) =     26.14167  eV     1   --> A              
     e( 69 - 69) =     26.59589  eV     1   --> A              
     e( 70 - 70) =     26.89997  eV     1   --> A              

 **************************************************************************

 **************************************************************************

                    xk=(   0.26952,   0.15519,   0.00000  )

     Band symmetry, C_1 (1)     point group:

     e(  1 -  1) =     -7.64237  eV     1   --> A              
     e(  2 -  2) =     -7.56531  eV     1   --> A              
     e(  3 -  3) =     -7.47942  eV     1   --> A              
     e(  4 -  4) =     -7.39380  eV     1   --> A              
     e(  5 -  5) =     -0.08416  eV     1   --> A              
     e(  6 -  6) =      0.20385  eV     1   --> A              
     e(  7 -  7) =      1.51360  eV     1   --> A              
     e(  8 -  8) =      1.74604  eV     1   --> A              
     e(  9 -  9) =      2.06723  eV     1   --> A              
     e( 10 - 10) =      2.14760  eV     1   --> A              
     e( 11 - 11) =      2.30584  eV     1   --> A              
     e( 12 - 12) =      2.95916  eV     1   --> A              
     e( 13 - 13) =      3.84034  eV     1   --> A              
     e( 14 - 14) =      3.93929  eV     1   --> A              
     e( 15 - 15) =      3.94792  eV     1   --> A              
     e( 16 - 16) =      4.03890  eV     1   --> A              
     e( 17 - 17) =      4.54515  eV     1   --> A              
     e( 18 - 18) =      5.21469  eV     1   --> A              
     e( 19 - 19) =      9.78289  eV     1   --> A              
     e( 20 - 20) =      9.92860  eV     1   --> A              
     e( 21 - 21) =     10.03640  eV     1   --> A              
     e( 22 - 22) =     10.06680  eV     1   --> A              
     e( 23 - 23) =     10.65089  eV     1   --> A              
     e( 24 - 24) =     11.17748  eV     1   --> A              
     e( 25 - 25) =     12.13733  eV     1   --> A              
     e( 26 - 26) =     12.21447  eV     1   --> A              
     e( 27 - 27) =     12.56402  eV     1   --> A              
     e( 28 - 28) =     13.11294  eV     1   --> A              
     e( 29 - 29) =     13.36466  eV     1   --> A              
     e( 30 - 30) =     13.62390  eV     1   --> A              
     e( 31 - 31) =     13.63856  eV     1   --> A              
     e( 32 - 32) =     13.73821  eV     1   --> A              
     e( 33 - 33) =     13.94284  eV     1   --> A              
     e( 34 - 34) =     14.57083  eV     1   --> A              
     e( 35 - 35) =     14.61652  eV     1   --> A              
     e( 36 - 36) =     14.66811  eV     1   --> A              
     e( 37 - 37) =     15.20960  eV     1   --> A              
     e( 38 - 38) =     15.58451  eV     1   --> A              
     e( 39 - 39) =     15.84221  eV     1   --> A              
     e( 40 - 40) =     17.12387  eV     1   --> A              
     e( 41 - 41) =     17.88534  eV     1   --> A              
     e( 42 - 42) =     17.92109  eV     1   --> A              
     e( 43 - 43) =     18.16671  eV     1   --> A              
     e( 44 - 44) =     18.25456  eV     1   --> A              
     e( 45 - 45) =     18.41843  eV     1   --> A              
     e( 46 - 46) =     19.56297  eV     1   --> A              
     e( 47 - 47) =     19.69721  eV     1   --> A              
     e( 48 - 48) =     20.09478  eV     1   --> A              
     e( 49 - 49) =     20.30122  eV     1   --> A              
     e( 50 - 50) =     20.64577  eV     1   --> A              
     e( 51 - 51) =     20.72120  eV     1   --> A              
     e( 52 - 52) =     21.33420  eV     1   --> A              
     e( 53 - 53) =     21.56287  eV     1   --> A              
     e( 54 - 54) =     21.67465  eV     1   --> A              
     e( 55 - 55) =     22.12489  eV     1   --> A              
     e( 56 - 56) =     22.83805  eV     1   --> A              
     e( 57 - 57) =     23.20807  eV     1   --> A              
     e( 58 - 58) =     23.43417  eV     1   --> A              
     e( 59 - 59) =     23.50756  eV     1   --> A              
     e( 60 - 60) =     23.81847  eV     1   --> A              
     e( 61 - 61) =     24.33389  eV     1   --> A              
     e( 62 - 62) =     25.44252  eV     1   --> A              
     e( 63 - 63) =     25.63972  eV     1   --> A              
     e( 64 - 64) =     25.76185  eV     1   --> A              
     e( 65 - 65) =     25.96924  eV     1   --> A              
     e( 66 - 66) =     26.14611  eV     1   --> A              
     e( 67 - 67) =     26.49690  eV     1   --> A              
     e( 68 - 68) =     26.58487  eV     1   --> A              
     e( 69 - 69) =     26.72438  eV     1   --> A              
     e( 70 - 70) =     27.25055  eV     1   --> A              

 **************************************************************************

 **************************************************************************

                    xk=(   0.28877,   0.16627,   0.00000  )

     Band symmetry, C_1 (1)     point group:

     e(  1 -  1) =     -7.52359  eV     1   --> A              
     e(  2 -  2) =     -7.44954  eV     1   --> A              
     e(  3 -  3) =     -7.36470  eV     1   --> A              
     e(  4 -  4) =     -7.28271  eV     1   --> A              
     e(  5 -  5) =      0.04091  eV     1   --> A              
     e(  6 -  6) =      0.26639  eV     1   --> A              
     e(  7 -  7) =      1.54222  eV     1   --> A              
     e(  8 -  8) =      1.55529  eV     1   --> A              
     e(  9 -  9) =      1.84282  eV     1   --> A              
     e( 10 - 10) =      1.96667  eV     1   --> A              
     e( 11 - 11) =      2.14014  eV     1   --> A              
     e( 12 - 12) =      2.99620  eV     1   --> A              
     e( 13 - 13) =      3.62828  eV     1   --> A              
     e( 14 - 14) =      3.72762  eV     1   --> A              
     e( 15 - 15) =      3.74481  eV     1   --> A              
     e( 16 - 16) =      3.83779  eV     1   --> A              
     e( 17 - 17) =      4.62318  eV     1   --> A              
     e( 18 - 18) =      5.20250  eV     1   --> A              
     e( 19 - 19) =      9.52715  eV     1   --> A              
     e( 20 - 20) =      9.68108  eV     1   --> A              
     e( 21 - 21) =      9.97472  eV     1   --> A              
     e( 22 - 22) =     10.08822  eV     1   --> A              
     e( 23 - 23) =     10.36787  eV     1   --> A              
     e( 24 - 24) =     10.95354  eV     1   --> A              
     e( 25 - 25) =     12.10428  eV     1   --> A              
     e( 26 - 26) =     12.18640  eV     1   --> A              
     e( 27 - 27) =     12.42841  eV     1   --> A              
     e( 28 - 28) =     13.06948  eV     1   --> A              
     e( 29 - 29) =     13.37746  eV     1   --> A              
     e( 30 - 30) =     13.74311  eV     1   --> A              
     e( 31 - 31) =     13.79893  eV     1   --> A              
     e( 32 - 32) =     13.88886  eV     1   --> A              
     e( 33 - 33) =     14.10930  eV     1   --> A              
     e( 34 - 34) =     14.37588  eV     1   --> A              
     e( 35 - 35) =     14.43832  eV     1   --> A              
     e( 36 - 36) =     14.57937  eV     1   --> A              
     e( 37 - 37) =     15.07536  eV     1   --> A              
     e( 38 - 38) =     15.40953  eV     1   --> A              
     e( 39 - 39) =     15.96633  eV     1   --> A              
     e( 40 - 40) =     16.98256  eV     1   --> A              
     e( 41 - 41) =     17.84447  eV     1   --> A              
     e( 42 - 42) =     18.16837  eV     1   --> A              
     e( 43 - 43) =     18.40633  eV     1   --> A              
     e( 44 - 44) =     18.75427  eV     1   --> A              
     e( 45 - 45) =     18.93197  eV     1   --> A              
     e( 46 - 46) =     19.83124  eV     1   --> A              
     e( 47 - 47) =     19.85597  eV     1   --> A              
     e( 48 - 48) =     20.17637  eV     1   --> A              
     e( 49 - 49) =     20.34405  eV     1   --> A              
     e( 50 - 50) =     20.73170  eV     1   --> A              
     e( 51 - 51) =     20.79157  eV     1   --> A              
     e( 52 - 52) =     21.40612  eV     1   --> A              
     e( 53 - 53) =     21.54383  eV     1   --> A              
     e( 54 - 54) =     21.59221  eV     1   --> A              
     e( 55 - 55) =     22.19247  eV     1   --> A              
     e( 56 - 56) =     22.93362  eV     1   --> A              
     e( 57 - 57) =     23.32248  eV     1   --> A              
     e( 58 - 58) =     23.48871  eV     1   --> A              
     e( 59 - 59) =     23.77856  eV     1   --> A              
     e( 60 - 60) =     24.01718  eV     1   --> A              
     e( 61 - 61) =     24.52124  eV     1   --> A              
     e( 62 - 62) =     25.35110  eV     1   --> A              
     e( 63 - 63) =     26.07981  eV     1   --> A              
     e( 64 - 64) =     26.12986  eV     1   --> A              
     e( 65 - 65) =     26.18403  eV     1   --> A              
     e( 66 - 66) =     26.33929  eV     1   --> A              
     e( 67 - 67) =     26.53450  eV     1   --> A              
     e( 68 - 68) =     27.00001  eV     1   --> A              
     e( 69 - 69) =     27.24495  eV     1   --> A              
     e( 70 - 70) =     27.26805  eV     1   --> A              

 **************************************************************************

 **************************************************************************

                    xk=(   0.30802,   0.17736,   0.00000  )

     Band symmetry, C_1 (1)     point group:

     e(  1 -  1) =     -7.40143  eV     1   --> A              
     e(  2 -  2) =     -7.33060  eV     1   --> A              
     e(  3 -  3) =     -7.24726  eV     1   --> A              
     e(  4 -  4) =     -7.16915  eV     1   --> A              
     e(  5 -  5) =      0.15448  eV     1   --> A              
     e(  6 -  6) =      0.29987  eV     1   --> A              
     e(  7 -  7) =      1.33103  eV     1   --> A              
     e(  8 -  8) =      1.45130  eV     1   --> A              
     e(  9 -  9) =      1.65176  eV     1   --> A              
     e( 10 - 10) =      1.95080  eV     1   --> A              
     e( 11 - 11) =      2.02728  eV     1   --> A              
     e( 12 - 12) =      3.05576  eV     1   --> A              
     e( 13 - 13) =      3.40935  eV     1   --> A              
     e( 14 - 14) =      3.50976  eV     1   --> A              
     e( 15 - 15) =      3.53607  eV     1   --> A              
     e( 16 - 16) =      3.63084  eV     1   --> A              
     e( 17 - 17) =      4.70067  eV     1   --> A              
[...]
     e( 61 - 61) =     22.44806  eV     1   --> A'             
     e( 62 - 62) =     22.45332  eV     1   --> A'             
     e( 63 - 63) =     23.21807  eV     1   --> A''            
     e( 64 - 64) =     23.31916  eV     1   --> A'             
     e( 65 - 65) =     23.87045  eV     1   --> A'             
     e( 66 - 66) =     24.52414  eV     1   --> A'             
     e( 67 - 67) =     24.91791  eV     1   --> A'             
     e( 68 - 68) =     25.31185  eV     1   --> A''            
     e( 69 - 69) =     25.83899  eV     1   --> A'             
     e( 70 - 70) =     25.85323  eV     1   --> A'             

 **************************************************************************

 **************************************************************************

                    xk=(   0.05775,   0.00000,   0.00000  )

     Band symmetry, C_s (m)     point group:

     e(  1 -  1) =     -8.50899  eV     1   --> A'             
     e(  2 -  2) =     -8.41295  eV     1   --> A'             
     e(  3 -  3) =     -8.32682  eV     1   --> A'             
     e(  4 -  4) =     -8.21838  eV     1   --> A'             
     e(  5 -  5) =     -1.09682  eV     1   --> A'             
     e(  6 -  6) =     -0.63093  eV     1   --> A'             
     e(  7 -  7) =      0.64599  eV     1   --> A'             
     e(  8 -  8) =      1.85557  eV     1   --> A'             
     e(  9 -  9) =      3.66409  eV     1   --> A'             
     e( 10 - 10) =      5.03371  eV     1   --> A'             
     e( 11 - 11) =      5.21029  eV     1   --> A'             
     e( 12 - 12) =      5.22979  eV     1   --> A'             
     e( 13 - 13) =      5.28523  eV     1   --> A'             
     e( 14 - 14) =      5.29273  eV     1   --> A'             
     e( 15 - 15) =      5.35767  eV     1   --> A''            
     e( 16 - 16) =      5.38729  eV     1   --> A''            
     e( 17 - 17) =      5.43157  eV     1   --> A''            
     e( 18 - 18) =      5.46249  eV     1   --> A''            
     e( 19 - 19) =      9.15192  eV     1   --> A'             
     e( 20 - 20) =     10.54250  eV     1   --> A'             
     e( 21 - 21) =     11.88277  eV     1   --> A'             
     e( 22 - 22) =     12.07285  eV     1   --> A'             
     e( 23 - 23) =     12.08504  eV     1   --> A'             
     e( 24 - 24) =     12.29282  eV     1   --> A'             
     e( 25 - 25) =     12.48238  eV     1   --> A'             
     e( 26 - 26) =     12.60903  eV     1   --> A'             
     e( 27 - 27) =     12.76838  eV     1   --> A''            
     e( 28 - 28) =     12.85528  eV     1   --> A''            
     e( 29 - 29) =     13.13769  eV     1   --> A'             
     e( 30 - 30) =     13.26756  eV     1   --> A'             
     e( 31 - 31) =     13.32275  eV     1   --> A''            
     e( 32 - 32) =     13.44404  eV     1   --> A''            
     e( 33 - 33) =     14.04384  eV     1   --> A'             
     e( 34 - 34) =     15.18720  eV     1   --> A'             
     e( 35 - 35) =     15.45292  eV     1   --> A''            
     e( 36 - 36) =     15.56935  eV     1   --> A'             
     e( 37 - 37) =     15.78714  eV     1   --> A''            
     e( 38 - 38) =     15.85381  eV     1   --> A'             
     e( 39 - 39) =     16.11242  eV     1   --> A'             
     e( 40 - 40) =     16.73141  eV     1   --> A'             
     e( 41 - 41) =     16.81040  eV     1   --> A'             
     e( 42 - 42) =     16.83211  eV     1   --> A''            
     e( 43 - 43) =     17.42498  eV     1   --> A''            
     e( 44 - 44) =     17.71637  eV     1   --> A''            
     e( 45 - 45) =     17.80044  eV     1   --> A'             
     e( 46 - 46) =     17.90599  eV     1   --> A'             
     e( 47 - 47) =     17.95229  eV     1   --> A''            
     e( 48 - 48) =     18.15213  eV     1   --> A'             
     e( 49 - 49) =     19.84187  eV     1   --> A'             
     e( 50 - 50) =     20.14443  eV     1   --> A'             
     e( 51 - 51) =     20.18964  eV     1   --> A'             
     e( 52 - 52) =     20.21058  eV     1   --> A'             
     e( 53 - 53) =     20.32595  eV     1   --> A'             
     e( 54 - 54) =     20.96025  eV     1   --> A'             
     e( 55 - 55) =     21.09713  eV     1   --> A'             
     e( 56 - 56) =     21.29282  eV     1   --> A''            
     e( 57 - 57) =     21.60790  eV     1   --> A'             
     e( 58 - 58) =     21.83335  eV     1   --> A'             
     e( 59 - 59) =     21.84284  eV     1   --> A''            
     e( 60 - 60) =     21.94552  eV     1   --> A''            
     e( 61 - 61) =     22.30228  eV     1   --> A'             
     e( 62 - 62) =     22.63522  eV     1   --> A'             
     e( 63 - 63) =     23.11776  eV     1   --> A'             
     e( 64 - 64) =     23.21710  eV     1   --> A''            
     e( 65 - 65) =     23.74274  eV     1   --> A'             
     e( 66 - 66) =     24.58736  eV     1   --> A'             
     e( 67 - 67) =     24.74813  eV     1   --> A'             
     e( 68 - 68) =     25.40432  eV     1   --> A''            
     e( 69 - 69) =     25.78720  eV     1   --> A'             
     e( 70 - 70) =     25.92386  eV     1   --> A'             

 **************************************************************************

 **************************************************************************

                    xk=(   0.03850,   0.00000,   0.00000  )

     Band symmetry, C_s (m)     point group:

     e(  1 -  1) =     -8.52757  eV     1   --> A'             
     e(  2 -  2) =     -8.43118  eV     1   --> A'             
     e(  3 -  3) =     -8.34513  eV     1   --> A'             
     e(  4 -  4) =     -8.23626  eV     1   --> A'             
     e(  5 -  5) =     -1.11867  eV     1   --> A'             
     e(  6 -  6) =     -0.65133  eV     1   --> A'             
     e(  7 -  7) =      0.62655  eV     1   --> A'             
     e(  8 -  8) =      1.84091  eV     1   --> A'             
     e(  9 -  9) =      3.65411  eV     1   --> A'             
     e( 10 - 10) =      5.03283  eV     1   --> A'             
     e( 11 - 11) =      5.32372  eV     1   --> A'             
     e( 12 - 12) =      5.34966  eV     1   --> A'             
     e( 13 - 13) =      5.38711  eV     1   --> A''            
     e( 14 - 14) =      5.39710  eV     1   --> A'             
     e( 15 - 15) =      5.41595  eV     1   --> A''            
     e( 16 - 16) =      5.41641  eV     1   --> A'             
     e( 17 - 17) =      5.45859  eV     1   --> A''            
     e( 18 - 18) =      5.48864  eV     1   --> A''            
     e( 19 - 19) =      9.11804  eV     1   --> A'             
     e( 20 - 20) =     10.53731  eV     1   --> A'             
     e( 21 - 21) =     11.79472  eV     1   --> A'             
     e( 22 - 22) =     11.98910  eV     1   --> A'             
     e( 23 - 23) =     11.99898  eV     1   --> A'             
     e( 24 - 24) =     12.20887  eV     1   --> A'             
     e( 25 - 25) =     12.60227  eV     1   --> A'             
     e( 26 - 26) =     12.71074  eV     1   --> A'             
     e( 27 - 27) =     12.72951  eV     1   --> A''            
     e( 28 - 28) =     12.81662  eV     1   --> A''            
     e( 29 - 29) =     13.18665  eV     1   --> A'             
     e( 30 - 30) =     13.26140  eV     1   --> A''            
     e( 31 - 31) =     13.31123  eV     1   --> A'             
     e( 32 - 32) =     13.38120  eV     1   --> A''            
     e( 33 - 33) =     14.00870  eV     1   --> A'             
     e( 34 - 34) =     15.39321  eV     1   --> A'             
     e( 35 - 35) =     15.51993  eV     1   --> A''            
     e( 36 - 36) =     15.73834  eV     1   --> A'             
     e( 37 - 37) =     15.83638  eV     1   --> A'             
     e( 38 - 38) =     15.84809  eV     1   --> A''            
     e( 39 - 39) =     16.32317  eV     1   --> A'             
     e( 40 - 40) =     16.84668  eV     1   --> A'             
     e( 41 - 41) =     16.88754  eV     1   --> A''            
     e( 42 - 42) =     16.97130  eV     1   --> A'             
     e( 43 - 43) =     17.44787  eV     1   --> A''            
     e( 44 - 44) =     17.60162  eV     1   --> A''            
     e( 45 - 45) =     17.65635  eV     1   --> A'             
     e( 46 - 46) =     17.83344  eV     1   --> A'             
     e( 47 - 47) =     17.85798  eV     1   --> A''            
     e( 48 - 48) =     17.89132  eV     1   --> A'             
     e( 49 - 49) =     19.71337  eV     1   --> A'             
     e( 50 - 50) =     20.03656  eV     1   --> A'             
     e( 51 - 51) =     20.05997  eV     1   --> A'             
     e( 52 - 52) =     20.10779  eV     1   --> A'             
     e( 53 - 53) =     20.25179  eV     1   --> A'             
     e( 54 - 54) =     20.81964  eV     1   --> A'             
     e( 55 - 55) =     21.14729  eV     1   --> A'             
     e( 56 - 56) =     21.22712  eV     1   --> A''            
     e( 57 - 57) =     21.66004  eV     1   --> A'             
     e( 58 - 58) =     21.76392  eV     1   --> A''            
     e( 59 - 59) =     21.90851  eV     1   --> A'             
     e( 60 - 60) =     21.97056  eV     1   --> A''            
     e( 61 - 61) =     22.17848  eV     1   --> A'             
     e( 62 - 62) =     22.86584  eV     1   --> A'             
     e( 63 - 63) =     22.95503  eV     1   --> A'             
     e( 64 - 64) =     23.21601  eV     1   --> A''            
     e( 65 - 65) =     23.64212  eV     1   --> A'             
     e( 66 - 66) =     24.26440  eV     1   --> A'             
     e( 67 - 67) =     24.95926  eV     1   --> A'             
     e( 68 - 68) =     25.47974  eV     1   --> A''            
     e( 69 - 69) =     25.70516  eV     1   --> A'             
     e( 70 - 70) =     25.91381  eV     1   --> A'             

 **************************************************************************

 **************************************************************************

                    xk=(   0.01925,   0.00000,   0.00000  )

     Band symmetry, C_s (m)     point group:

     e(  1 -  1) =     -8.53874  eV     1   --> A'             
     e(  2 -  2) =     -8.44213  eV     1   --> A'             
     e(  3 -  3) =     -8.35614  eV     1   --> A'             
     e(  4 -  4) =     -8.24701  eV     1   --> A'             
     e(  5 -  5) =     -1.13180  eV     1   --> A'             
     e(  6 -  6) =     -0.66361  eV     1   --> A'             
     e(  7 -  7) =      0.61487  eV     1   --> A'             
     e(  8 -  8) =      1.83202  eV     1   --> A'             
     e(  9 -  9) =      3.64774  eV     1   --> A'             
     e( 10 - 10) =      5.03015  eV     1   --> A'             
     e( 11 - 11) =      5.39651  eV     1   --> A'             
     e( 12 - 12) =      5.40513  eV     1   --> A''            
     e( 13 - 13) =      5.42416  eV     1   --> A'             
     e( 14 - 14) =      5.43349  eV     1   --> A''            
     e( 15 - 15) =      5.46699  eV     1   --> A'             
     e( 16 - 16) =      5.47505  eV     1   --> A''            
     e( 17 - 17) =      5.49366  eV     1   --> A'             
     e( 18 - 18) =      5.50458  eV     1   --> A''            
     e( 19 - 19) =      9.09645  eV     1   --> A'             
     e( 20 - 20) =     10.53268  eV     1   --> A'             
     e( 21 - 21) =     11.73300  eV     1   --> A'             
     e( 22 - 22) =     11.93362  eV     1   --> A'             
     e( 23 - 23) =     11.93800  eV     1   --> A'             
     e( 24 - 24) =     12.15270  eV     1   --> A'             
     e( 25 - 25) =     12.68819  eV     1   --> A'             
     e( 26 - 26) =     12.70509  eV     1   --> A''            
     e( 27 - 27) =     12.78138  eV     1   --> A'             
     e( 28 - 28) =     12.79204  eV     1   --> A''            
     e( 29 - 29) =     13.22206  eV     1   --> A'             
     e( 30 - 30) =     13.22415  eV     1   --> A''            
     e( 31 - 31) =     13.34241  eV     1   --> A'             
     e( 32 - 32) =     13.34296  eV     1   --> A''            
     e( 33 - 33) =     13.97728  eV     1   --> A'             
     e( 34 - 34) =     15.54271  eV     1   --> A'             
     e( 35 - 35) =     15.56707  eV     1   --> A''            
     e( 36 - 36) =     15.79479  eV     1   --> A'             
     e( 37 - 37) =     15.87858  eV     1   --> A'             
     e( 38 - 38) =     15.89020  eV     1   --> A''            
     e( 39 - 39) =     16.48164  eV     1   --> A'             
     e( 40 - 40) =     16.92326  eV     1   --> A''            
     e( 41 - 41) =     16.92379  eV     1   --> A'             
     e( 42 - 42) =     17.12330  eV     1   --> A'             
     e( 43 - 43) =     17.46126  eV     1   --> A''            
     e( 44 - 44) =     17.52691  eV     1   --> A''            
     e( 45 - 45) =     17.53493  eV     1   --> A'             
     e( 46 - 46) =     17.64283  eV     1   --> A'             
     e( 47 - 47) =     17.79537  eV     1   --> A''            
     e( 48 - 48) =     17.80613  eV     1   --> A'             
     e( 49 - 49) =     19.63186  eV     1   --> A'             
     e( 50 - 50) =     19.94060  eV     1   --> A'             
     e( 51 - 51) =     19.97197  eV     1   --> A'             
     e( 52 - 52) =     20.04314  eV     1   --> A'             
     e( 53 - 53) =     20.22767  eV     1   --> A'             
     e( 54 - 54) =     20.72619  eV     1   --> A'             
     e( 55 - 55) =     21.18186  eV     1   --> A'             
     e( 56 - 56) =     21.18747  eV     1   --> A''            
     e( 57 - 57) =     21.70043  eV     1   --> A'             
     e( 58 - 58) =     21.71440  eV     1   --> A''            
     e( 59 - 59) =     21.98353  eV     1   --> A'             
     e( 60 - 60) =     21.98860  eV     1   --> A''            
     e( 61 - 61) =     22.09444  eV     1   --> A'             
     e( 62 - 62) =     22.84247  eV     1   --> A'             
     e( 63 - 63) =     23.10213  eV     1   --> A'             
     e( 64 - 64) =     23.21494  eV     1   --> A''            
     e( 65 - 65) =     23.57770  eV     1   --> A'             
     e( 66 - 66) =     23.97615  eV     1   --> A'             
     e( 67 - 67) =     25.13240  eV     1   --> A'             
     e( 68 - 68) =     25.52946  eV     1   --> A''            
     e( 69 - 69) =     25.61608  eV     1   --> A'             
     e( 70 - 70) =     25.84221  eV     1   --> A'             

 **************************************************************************

 **************************************************************************

                    xk=(   0.00000,   0.00000,   0.00000  )

     Band symmetry, C_s (m)     point group:

     e(  1 -  1) =     -8.54247  eV     1   --> A'             
     e(  2 -  2) =     -8.44579  eV     1   --> A'             
     e(  3 -  3) =     -8.35981  eV     1   --> A'             
     e(  4 -  4) =     -8.25060  eV     1   --> A'             
     e(  5 -  5) =     -1.13618  eV     1   --> A'             
     e(  6 -  6) =     -0.66771  eV     1   --> A'             
     e(  7 -  7) =      0.61097  eV     1   --> A'             
     e(  8 -  8) =      1.82904  eV     1   --> A'             
     e(  9 -  9) =      3.64555  eV     1   --> A'             
     e( 10 - 10) =      5.02908  eV     1   --> A'             
     e( 11 - 11) =      5.41120  eV     1   --> A''            
     e( 12 - 12) =      5.42140  eV     1   --> A'             
     e( 13 - 13) =      5.43940  eV     1   --> A''            
     e( 14 - 14) =      5.44946  eV     1   --> A'             
     e( 15 - 15) =      5.48059  eV     1   --> A''            
     e( 16 - 16) =      5.49076  eV     1   --> A'             
     e( 17 - 17) =      5.50993  eV     1   --> A''            
     e( 18 - 18) =      5.51996  eV     1   --> A'             
     e( 19 - 19) =      9.08901  eV     1   --> A'             
     e( 20 - 20) =     10.53083  eV     1   --> A'             
     e( 21 - 21) =     11.71123  eV     1   --> A'             
     e( 22 - 22) =     11.91432  eV     1   --> A'             
     e( 23 - 23) =     11.91651  eV     1   --> A'             
     e( 24 - 24) =     12.13310  eV     1   --> A'             
     e( 25 - 25) =     12.69678  eV     1   --> A''            
     e( 26 - 26) =     12.71930  eV     1   --> A'             
     e( 27 - 27) =     12.78362  eV     1   --> A''            
     e( 28 - 28) =     12.80630  eV     1   --> A'             
     e( 29 - 29) =     13.21166  eV     1   --> A''            
     e( 30 - 30) =     13.23479  eV     1   --> A'             
     e( 31 - 31) =     13.33013  eV     1   --> A''            
     e( 32 - 32) =     13.35355  eV     1   --> A'             
     e( 33 - 33) =     13.96467  eV     1   --> A'             
     e( 34 - 34) =     15.58415  eV     1   --> A''            
     e( 35 - 35) =     15.60450  eV     1   --> A'             
     e( 36 - 36) =     15.77551  eV     1   --> A'             
     e( 37 - 37) =     15.90529  eV     1   --> A''            
     e( 38 - 38) =     15.92607  eV     1   --> A'             
     e( 39 - 39) =     16.54376  eV     1   --> A'             
     e( 40 - 40) =     16.93562  eV     1   --> A''            
     e( 41 - 41) =     16.95235  eV     1   --> A'             
     e( 42 - 42) =     17.21562  eV     1   --> A'             
     e( 43 - 43) =     17.46562  eV     1   --> A''            
     e( 44 - 44) =     17.48319  eV     1   --> A'             
     e( 45 - 45) =     17.50086  eV     1   --> A''            
     e( 46 - 46) =     17.51949  eV     1   --> A'             
     e( 47 - 47) =     17.77333  eV     1   --> A''            
     e( 48 - 48) =     17.79096  eV     1   --> A'             
     e( 49 - 49) =     19.60408  eV     1   --> A'             
     e( 50 - 50) =     19.90785  eV     1   --> A'             
     e( 51 - 51) =     19.93892  eV     1   --> A'             
     e( 52 - 52) =     20.02090  eV     1   --> A'             
     e( 53 - 53) =     20.22043  eV     1   --> A'             
     e( 54 - 54) =     20.69379  eV     1   --> A'             
     e( 55 - 55) =     21.17423  eV     1   --> A''            
     e( 56 - 56) =     21.19397  eV     1   --> A'             
     e( 57 - 57) =     21.69751  eV     1   --> A''            
     e( 58 - 58) =     21.71671  eV     1   --> A'             
     e( 59 - 59) =     21.99514  eV     1   --> A''            
     e( 60 - 60) =     22.01535  eV     1   --> A'             
     e( 61 - 61) =     22.06365  eV     1   --> A'             
     e( 62 - 62) =     22.80054  eV     1   --> A'             
     e( 63 - 63) =     23.21448  eV     1   --> A''            
     e( 64 - 64) =     23.23320  eV     1   --> A'             
     e( 65 - 65) =     23.55549  eV     1   --> A'             
     e( 66 - 66) =     23.82827  eV     1   --> A'             
     e( 67 - 67) =     25.21169  eV     1   --> A'             
     e( 68 - 68) =     25.54687  eV     1   --> A''            
     e( 69 - 69) =     25.56599  eV     1   --> A'             
     e( 70 - 70) =     25.81106  eV     1   --> A'             

 **************************************************************************
 
     BANDS        :      7.41s CPU     11.87s WALL

 
   This run was terminated on:  22: 6:48  18Jun2023            

=------------------------------------------------------------------------------=
   JOB DONE.
=------------------------------------------------------------------------------=
