
     Program PWSCF v.7.0 starts on 18Jun2023 at 21:56:58 

     This program is part of the open-source Quantum ESPRESSO suite
     for quantum simulation of materials; please cite
         "P. Giannozzi et al., J. Phys.:Condens. Matter 21 395502 (2009);
         "P. Giannozzi et al., J. Phys.:Condens. Matter 29 465901 (2017);
         "P. Giannozzi et al., J. Chem. Phys. 152 154105 (2020);
          URL http://www.quantum-espresso.org", 
     in publications or presentations arising from this work. More details at
     http://www.quantum-espresso.org/quote

     Parallel version (MPI), running on    16 processors

     MPI processes distributed on     1 nodes
     R & G space division:  proc/nbgrp/npool/nimage =      16
     3580 MiB available memory on the printing compute node when the environment starts
 
     Waiting for input...
     Reading input from standard input

     Current dimensions of program PWSCF are:
     Max number of different atomic species (ntypx) = 10
     Max number of k-points (npk) =  40000
     Max angular momentum in pseudopotentials (lmaxx) =  4
     Message from routine volume:
     axis vectors are left-handed
     file Al.pbe-n-kjpaw_psl.1.0.0.UPF: wavefunction(s)  3S 3P renormalized
     file S.pbe-n-kjpaw_psl.1.0.0.UPF: wavefunction(s)  3S 3P renormalized

     IMPORTANT: XC functional enforced from input :
     Exchange-correlation= VDW-DF2-B86R
                           (   1   4  26   0   2   0   0)
     Any further DFT definition will be discarded
     Please, verify this is what you really want

     Message from routine setup:
     using ibrav=0 with symmetry is DISCOURAGED, use correct ibrav instead

     Subspace diagonalization in iterative solution of the eigenvalue problem:
     a serial algorithm will be used

 
     Parallelization info
     --------------------
     sticks:   dense  smooth     PW     G-vecs:    dense   smooth      PW
     Min          39      39     12                 3971     3971     702
     Max          40      40     13                 3979     3979     719
     Sum         625     625    199                63573    63573   11349
 
     Using Slab Decomposition
 


     bravais-lattice index     =            0
     lattice parameter (alat)  =       6.1344  a.u.
     unit-cell volume          =    1014.0292 (a.u.)^3
     number of atoms/cell      =            8
     number of atomic types    =            2
     number of electrons       =        36.00
     number of Kohn-Sham states=           70
     kinetic-energy cutoff     =      60.0000  Ry
     charge density cutoff     =     240.0000  Ry
     scf convergence threshold =      1.0E-08
     mixing beta               =       0.5000
     number of iterations used =            8  plain     mixing
     Exchange-correlation= VDW-DF2-B86R
                           (   1   4  26   0   2   0   0)

     celldm(1)=   6.134387  celldm(2)=   0.000000  celldm(3)=   0.000000
     celldm(4)=   0.000000  celldm(5)=   0.000000  celldm(6)=   0.000000

     crystal axes: (cart. coord. in units of alat)
               a(1) = (   0.865734   0.500504   0.000000 )  
               a(2) = (   0.865734  -0.500504   0.000000 )  
               a(3) = (   0.000000   0.000000   5.068913 )  

     reciprocal axes: (cart. coord. in units 2 pi/alat)
               b(1) = (  0.577544  0.998993  0.000000 )  
               b(2) = (  0.577544 -0.998993  0.000000 )  
               b(3) = (  0.000000  0.000000  0.197281 )  


     PseudoPot. # 1 for Al read from file:
     /home/mainadmin/research/danu/pseudo/Al.pbe-n-kjpaw_psl.1.0.0.UPF
     MD5 check sum: 502b6b27b9c6270cab5dd1084b96fa6d
     Pseudo is Projector augmented-wave + core cor, Zval =  3.0
     Generated using &quot;atomic&quot; code by A. Dal Corso  v.6.3
     Shape of augmentation charge: PSQ
     Using radial grid of 1135 points,  6 beta functions with: 
                l(1) =   0
                l(2) =   0
                l(3) =   1
                l(4) =   1
                l(5) =   2
                l(6) =   2
     Q(r) pseudized with 0 coefficients 


     PseudoPot. # 2 for S  read from file:
     /home/mainadmin/research/danu/pseudo/S.pbe-n-kjpaw_psl.1.0.0.UPF
     MD5 check sum: fb45dfebcf3e72a4e1bd4a866ec2e262
     Pseudo is Projector augmented-wave + core cor, Zval =  6.0
     Generated using &quot;atomic&quot; code by A. Dal Corso  v.6.3
     Shape of augmentation charge: PSQ
     Using radial grid of 1151 points,  6 beta functions with: 
                l(1) =   0
                l(2) =   0
                l(3) =   1
                l(4) =   1
                l(5) =   2
                l(6) =   2
     Q(r) pseudized with 0 coefficients 


     atomic species   valence    mass     pseudopotential
        Al             3.00    26.98100     Al( 1.00)
        S              6.00    32.06500     S ( 1.00)

      2 Sym. Ops. (no inversion) found



   Cartesian axes

     site n.     atom                  positions (alat units)
         1           S   tau(   1) = (   1.1543123   0.0000000   0.0000000  )
         2           Al  tau(   2) = (   0.5771561   0.0000000   0.3771467  )
         3           Al  tau(   3) = (   0.5771561   0.0000000   1.1783904  )
         4           S   tau(   4) = (   1.1543123   0.0000000   1.5554814  )
         5           S   tau(   5) = (   0.5771561   0.0000000   2.5353827  )
         6           Al  tau(   6) = (   1.1543123   0.0000000   2.9124722  )
         7           Al  tau(   7) = (   1.1543123   0.0000000   3.7136612  )
         8           S   tau(   8) = (   0.5771561   0.0000000   4.0907070  )

     number of k points=   140

     Number of k-points >= 100: set verbosity='high' to print them.

     Dense  grid:    63573 G-vectors     FFT dimensions: (  32,  32, 160)

     Estimated max dynamical RAM per process >      92.45 MB

     Estimated total dynamical RAM >       1.44 GB

     Initial potential from superposition of free atoms

     starting charge      35.9907, renormalised to      36.0000


     %%%%%%%%%%%%%%%%%%%%%%%%%%%%%%%%%%%%%%%%%%%%%%%%%%%%%%%%%%%%%%%%%%%%%%%%
     %                                                                      %
     % You are using vdW-DF, which was implemented by the Thonhauser group. %
     % Please cite the following two papers that made this development      %
     % possible and the two reviews that describe the various versions:     %
     %                                                                      %
     %   T. Thonhauser et al., PRL 115, 136402 (2015).                      %
     %   T. Thonhauser et al., PRB 76, 125112 (2007).                       %
     %   K. Berland et al., Rep. Prog. Phys. 78, 066501 (2015).             %
     %   D.C. Langreth et al., J. Phys.: Condens. Matter 21, 084203 (2009). %
     %                                                                      %
     %                                                                      %
     % If you are calculating the stress with vdW-DF, please also cite:     %
     %                                                                      %
     %   R. Sabatini et al., J. Phys.: Condens. Matter 24, 424209 (2012).   %
     %                                                                      %
     %%%%%%%%%%%%%%%%%%%%%%%%%%%%%%%%%%%%%%%%%%%%%%%%%%%%%%%%%%%%%%%%%%%%%%%%


     Starting wfcs are   32 randomized atomic wfcs +   38 random wfcs
     Checking if some PAW data can be deallocated... 

     total cpu time spent up to now is       12.7 secs

     Self-consistent Calculation

     iteration #  1     ecut=    60.00 Ry     beta= 0.50
     Davidson diagonalization with overlap
     ethr =  1.00E-02,  avg # of iterations =  8.3

     Threshold (ethr) on eigenvalues was too large:
     Diagonalizing with lowered threshold

     Davidson diagonalization with overlap
     ethr =  9.43E-04,  avg # of iterations =  1.0

     total cpu time spent up to now is       95.5 secs

     total energy              =    -421.89150812 Ry
     estimated scf accuracy    <       0.33950690 Ry

     iteration #  2     ecut=    60.00 Ry     beta= 0.50
     Davidson diagonalization with overlap
     ethr =  9.43E-04,  avg # of iterations =  1.3

     total cpu time spent up to now is      118.2 secs

     total energy              =    -421.92513919 Ry
     estimated scf accuracy    <       0.06957280 Ry

     iteration #  3     ecut=    60.00 Ry     beta= 0.50
     Davidson diagonalization with overlap
     ethr =  1.93E-04,  avg # of iterations =  2.9

     total cpu time spent up to now is      144.9 secs

     total energy              =    -421.93576761 Ry
     estimated scf accuracy    <       0.08931862 Ry

     iteration #  4     ecut=    60.00 Ry     beta= 0.50
     Davidson diagonalization with overlap
     ethr =  1.93E-04,  avg # of iterations =  1.2

     total cpu time spent up to now is      167.3 secs

     total energy              =    -421.94890031 Ry
     estimated scf accuracy    <       0.00248292 Ry

     iteration #  5     ecut=    60.00 Ry     beta= 0.50
     Davidson diagonalization with overlap
     ethr =  6.90E-06,  avg # of iterations =  9.4

     total cpu time spent up to now is      202.7 secs

     total energy              =    -421.94884703 Ry
     estimated scf accuracy    <       0.00136833 Ry

     iteration #  6     ecut=    60.00 Ry     beta= 0.50
     Davidson diagonalization with overlap
     ethr =  3.80E-06,  avg # of iterations =  2.6

     total cpu time spent up to now is      228.1 secs

     total energy              =    -421.94902923 Ry
     estimated scf accuracy    <       0.00005644 Ry

     iteration #  7     ecut=    60.00 Ry     beta= 0.50
     Davidson diagonalization with overlap
     ethr =  1.57E-07,  avg # of iterations =  1.1

     total cpu time spent up to now is      250.4 secs

     total energy              =    -421.94903541 Ry
     estimated scf accuracy    <       0.00000188 Ry

     iteration #  8     ecut=    60.00 Ry     beta= 0.50
     Davidson diagonalization with overlap
     ethr =  5.22E-09,  avg # of iterations =  1.1

     total cpu time spent up to now is      272.7 secs

     total energy              =    -421.94903561 Ry
     estimated scf accuracy    <       0.00000156 Ry

     iteration #  9     ecut=    60.00 Ry     beta= 0.50
     Davidson diagonalization with overlap
     ethr =  4.35E-09,  avg # of iterations =  1.2

     total cpu time spent up to now is      295.1 secs

     total energy              =    -421.94903586 Ry
     estimated scf accuracy    <       0.00000005 Ry

     iteration # 10     ecut=    60.00 Ry     beta= 0.50
     Davidson diagonalization with overlap
     ethr =  1.43E-10,  avg # of iterations =  1.0

     total cpu time spent up to now is      317.3 secs

     End of self-consistent calculation

     Number of k-points >= 100: set verbosity='high' to print the bands.

     highest occupied, lowest unoccupied level (ev):     5.4530    6.8311

!    total energy              =    -421.94903587 Ry

     total all-electron energy =     -5134.924639 Ry
     estimated scf accuracy    <          8.0E-09 Ry

     The total energy is the sum of the following terms:
     one-electron contribution =       6.78319496 Ry
     hartree contribution      =      15.84470360 Ry
     xc contribution           =     -31.40596647 Ry
     ewald contribution        =     -91.57504835 Ry
     one-center paw contrib.   =    -321.59591961 Ry

     convergence has been achieved in  10 iterations

     Writing all to output data dir ./work/Al2S2.save/
 
     init_run     :     10.34s CPU     12.53s WALL (       1 calls)
     electrons    :    238.84s CPU    304.62s WALL (       1 calls)

     Called by init_run:
     wfcinit      :      5.82s CPU      7.96s WALL (       1 calls)
     potinit      :      4.39s CPU      4.41s WALL (       1 calls)
     hinit0       :      0.08s CPU      0.09s WALL (       1 calls)

     Called by electrons:
     c_bands      :    212.78s CPU    267.69s WALL (      11 calls)
     sum_band     :     24.29s CPU     35.03s WALL (      11 calls)
     v_of_rho     :      4.63s CPU      4.73s WALL (      11 calls)
     newd         :      0.42s CPU      0.44s WALL (      11 calls)
     PAW_pot      :      1.07s CPU      1.11s WALL (      11 calls)
     mix_rho      :      0.02s CPU      0.03s WALL (      11 calls)
     vdW_kernel   :      4.23s CPU      4.24s WALL (       1 calls)

     Called by c_bands:
     init_us_2    :      2.48s CPU      2.58s WALL (    3220 calls)
     init_us_2:cp :      2.46s CPU      2.58s WALL (    3220 calls)
     cegterg      :    201.24s CPU    256.04s WALL (    1540 calls)

     Called by *egterg:
     cdiaghg      :     25.33s CPU     25.95s WALL (    5753 calls)
     h_psi        :    122.01s CPU    174.71s WALL (    6033 calls)
     s_psi        :     10.08s CPU     10.57s WALL (    6033 calls)
     g_psi        :      0.29s CPU      0.30s WALL (    4353 calls)

     Called by h_psi:
     h_psi:calbec :     13.08s CPU     16.68s WALL (    6033 calls)
     vloc_psi     :     92.70s CPU    140.97s WALL (    6033 calls)
     add_vuspsi   :     15.11s CPU     15.91s WALL (    6033 calls)

     General routines
     calbec       :     16.61s CPU     21.33s WALL (    7573 calls)
     fft          :      0.18s CPU      0.25s WALL (     672 calls)
     ffts         :      0.00s CPU      0.00s WALL (      11 calls)
     fftw         :    106.69s CPU    162.21s WALL (  639908 calls)
 
     Parallel routines
 
     PWSCF        :   4m10.25s CPU   5m20.02s WALL

 
   This run was terminated on:  22: 2:18  18Jun2023            

=------------------------------------------------------------------------------=
   JOB DONE.
=------------------------------------------------------------------------------=
