
     Program PWSCF v.7.1 starts on 17Jun2023 at 12:33:24 

     This program is part of the open-source Quantum ESPRESSO suite
     for quantum simulation of materials; please cite
         "P. Giannozzi et al., J. Phys.:Condens. Matter 21 395502 (2009);
         "P. Giannozzi et al., J. Phys.:Condens. Matter 29 465901 (2017);
         "P. Giannozzi et al., J. Chem. Phys. 152 154105 (2020);
          URL http://www.quantum-espresso.org", 
     in publications or presentations arising from this work. More details at
     http://www.quantum-espresso.org/quote

     Parallel version (MPI), running on    16 processors

     MPI processes distributed on     1 nodes
     53478 MiB available memory on the printing compute node when the environment starts
 
     Waiting for input...
     Reading input from standard input

     Current dimensions of program PWSCF are:
     Max number of different atomic species (ntypx) = 10
     Max number of k-points (npk) =  40000
     Max angular momentum in pseudopotentials (lmaxx) =  4
     Message from routine volume:
     axis vectors are left-handed

     Atomic positions and unit cell read from directory:
     ./work/Al2O2.save/
     Atomic positions from file used, from input discarded
 
     Message from routine volume:
     axis vectors are left-handed
     file Al.pbe-n-kjpaw_psl.1.0.0.UPF: wavefunction(s)  3S 3P renormalized
     file O.pbe-n-kjpaw_psl.1.0.0.UPF: wavefunction(s)  2S 2P renormalized
     Message from routine setup:
     using ibrav=0 with symmetry is DISCOURAGED, use correct ibrav instead
 
     R & G space division:  proc/nbgrp/npool/nimage =      16
     Subspace diagonalization in iterative solution of the eigenvalue problem:
     a serial algorithm will be used

 
     Parallelization info
     --------------------
     sticks:   dense  smooth     PW     G-vecs:    dense   smooth      PW
     Min          39      39     11                 3791     3791     599
     Max          40      40     12                 3799     3799     614
     Sum         625     625    187                60707    60707    9781
 
     Using Slab Decomposition
 


     bravais-lattice index     =            0
     lattice parameter (alat)  =       6.1344  a.u.
     unit-cell volume          =     968.0252 (a.u.)^3
     number of atoms/cell      =            8
     number of atomic types    =            2
     number of electrons       =        36.00
     number of Kohn-Sham states=           70
     kinetic-energy cutoff     =      60.0000  Ry
     charge density cutoff     =     240.0000  Ry
     Exchange-correlation= SLA  PW   PBX  PBC
                           (   1   4   3   4   0   0   0)

     celldm(1)=   6.134387  celldm(2)=   0.000000  celldm(3)=   0.000000
     celldm(4)=   0.000000  celldm(5)=   0.000000  celldm(6)=   0.000000

     crystal axes: (cart. coord. in units of alat)
               a(1) = (   0.865734   0.500504   0.000000 )  
               a(2) = (   0.865734  -0.500504   0.000000 )  
               a(3) = (   0.000000   0.000000   4.838949 )  

     reciprocal axes: (cart. coord. in units 2 pi/alat)
               b(1) = (  0.577544  0.998993  0.000000 )  
               b(2) = (  0.577544 -0.998993  0.000000 )  
               b(3) = (  0.000000  0.000000  0.206656 )  


     PseudoPot. # 1 for Al read from file:
     /home/mainadmin/research/danu/pseudo/Al.pbe-n-kjpaw_psl.1.0.0.UPF
     MD5 check sum: 502b6b27b9c6270cab5dd1084b96fa6d
     Pseudo is Projector augmented-wave + core cor, Zval =  3.0
     Generated using &quot;atomic&quot; code by A. Dal Corso  v.6.3
     Shape of augmentation charge: PSQ
     Using radial grid of 1135 points,  6 beta functions with: 
                l(1) =   0
                l(2) =   0
                l(3) =   1
                l(4) =   1
                l(5) =   2
                l(6) =   2
     Q(r) pseudized with 0 coefficients 


     PseudoPot. # 2 for O  read from file:
     /home/mainadmin/research/danu/pseudo/O.pbe-n-kjpaw_psl.1.0.0.UPF
     MD5 check sum: e99d9cef9b487d1ca56f5b95ecd0fd7a
     Pseudo is Projector augmented-wave + core cor, Zval =  6.0
     Generated using &quot;atomic&quot; code by A. Dal Corso  v.6.3
     Shape of augmentation charge: PSQ
     Using radial grid of 1095 points,  4 beta functions with: 
                l(1) =   0
                l(2) =   0
                l(3) =   1
                l(4) =   1
     Q(r) pseudized with 0 coefficients 


     atomic species   valence    mass     pseudopotential
        Al             3.00    26.98100     Al( 1.00)
        O              6.00    15.99900     O ( 1.00)

      2 Sym. Ops. (no inversion) found



   Cartesian axes

     site n.     atom                  positions (alat units)
         1           O   tau(   1) = (   1.1543123   0.0000000   0.0000000  )
         2           Al  tau(   2) = (   0.5771561   0.0000000   0.1709302  )
         3           Al  tau(   3) = (   0.5771561   0.0000000   0.9743090  )
         4           O   tau(   4) = (   1.1543123   0.0000000   1.1454264  )
         5           O   tau(   5) = (   1.1543123   0.0000000   2.4193285  )
         6           Al  tau(   6) = (   0.5771561   0.0000000   2.5897303  )
         7           Al  tau(   7) = (   0.5771561   0.0000000   3.3940051  )
         8           O   tau(   8) = (   1.1543123   0.0000000   3.5650471  )

     number of k points=    91
                       cart. coord. in units 2pi/alat
        k(    1) = (   0.0000000   0.0000000   0.0000000), wk =   0.0219780
        k(    2) = (   0.0192515   0.0110848   0.0000000), wk =   0.0219780
        k(    3) = (   0.0385030   0.0221697   0.0000000), wk =   0.0219780
        k(    4) = (   0.0577544   0.0332545   0.0000000), wk =   0.0219780
        k(    5) = (   0.0770059   0.0443393   0.0000000), wk =   0.0219780
        k(    6) = (   0.0962574   0.0554241   0.0000000), wk =   0.0219780
        k(    7) = (   0.1155089   0.0665090   0.0000000), wk =   0.0219780
        k(    8) = (   0.1347604   0.0775938   0.0000000), wk =   0.0219780
        k(    9) = (   0.1540119   0.0886786   0.0000000), wk =   0.0219780
        k(   10) = (   0.1732633   0.0997634   0.0000000), wk =   0.0219780
        k(   11) = (   0.1925148   0.1108483   0.0000000), wk =   0.0219780
        k(   12) = (   0.2117663   0.1219331   0.0000000), wk =   0.0219780
        k(   13) = (   0.2310178   0.1330179   0.0000000), wk =   0.0219780
        k(   14) = (   0.2502693   0.1441027   0.0000000), wk =   0.0219780
        k(   15) = (   0.2695208   0.1551876   0.0000000), wk =   0.0219780
        k(   16) = (   0.2887722   0.1662724   0.0000000), wk =   0.0219780
        k(   17) = (   0.3080237   0.1773572   0.0000000), wk =   0.0219780
        k(   18) = (   0.3272752   0.1884420   0.0000000), wk =   0.0219780
        k(   19) = (   0.3465267   0.1995269   0.0000000), wk =   0.0219780
        k(   20) = (   0.3657782   0.2106117   0.0000000), wk =   0.0219780
        k(   21) = (   0.3850296   0.2216965   0.0000000), wk =   0.0219780
        k(   22) = (   0.4042811   0.2327813   0.0000000), wk =   0.0219780
        k(   23) = (   0.4235326   0.2438662   0.0000000), wk =   0.0219780
        k(   24) = (   0.4427841   0.2549510   0.0000000), wk =   0.0219780
        k(   25) = (   0.4620356   0.2660358   0.0000000), wk =   0.0219780
        k(   26) = (   0.4812871   0.2771206   0.0000000), wk =   0.0219780
        k(   27) = (   0.5005385   0.2882055   0.0000000), wk =   0.0219780
        k(   28) = (   0.5197900   0.2992903   0.0000000), wk =   0.0219780
        k(   29) = (   0.5390415   0.3103751   0.0000000), wk =   0.0219780
        k(   30) = (   0.5582930   0.3214599   0.0000000), wk =   0.0219780
        k(   31) = (   0.5775445   0.3325448   0.0000000), wk =   0.0219780
        k(   32) = (   0.5775445   0.3214599   0.0000000), wk =   0.0219780
        k(   33) = (   0.5775445   0.3103751   0.0000000), wk =   0.0219780
        k(   34) = (   0.5775445   0.2992903   0.0000000), wk =   0.0219780
        k(   35) = (   0.5775445   0.2882055   0.0000000), wk =   0.0219780
        k(   36) = (   0.5775445   0.2771206   0.0000000), wk =   0.0219780
        k(   37) = (   0.5775445   0.2660358   0.0000000), wk =   0.0219780
        k(   38) = (   0.5775445   0.2549510   0.0000000), wk =   0.0219780
        k(   39) = (   0.5775445   0.2438662   0.0000000), wk =   0.0219780
        k(   40) = (   0.5775445   0.2327813   0.0000000), wk =   0.0219780
        k(   41) = (   0.5775445   0.2216965   0.0000000), wk =   0.0219780
        k(   42) = (   0.5775445   0.2106117   0.0000000), wk =   0.0219780
        k(   43) = (   0.5775445   0.1995269   0.0000000), wk =   0.0219780
        k(   44) = (   0.5775445   0.1884420   0.0000000), wk =   0.0219780
        k(   45) = (   0.5775445   0.1773572   0.0000000), wk =   0.0219780
        k(   46) = (   0.5775445   0.1662724   0.0000000), wk =   0.0219780
        k(   47) = (   0.5775445   0.1551876   0.0000000), wk =   0.0219780
        k(   48) = (   0.5775445   0.1441027   0.0000000), wk =   0.0219780
        k(   49) = (   0.5775445   0.1330179   0.0000000), wk =   0.0219780
        k(   50) = (   0.5775445   0.1219331   0.0000000), wk =   0.0219780
        k(   51) = (   0.5775445   0.1108483   0.0000000), wk =   0.0219780
        k(   52) = (   0.5775445   0.0997634   0.0000000), wk =   0.0219780
        k(   53) = (   0.5775445   0.0886786   0.0000000), wk =   0.0219780
        k(   54) = (   0.5775445   0.0775938   0.0000000), wk =   0.0219780
        k(   55) = (   0.5775445   0.0665090   0.0000000), wk =   0.0219780
        k(   56) = (   0.5775445   0.0554241   0.0000000), wk =   0.0219780
        k(   57) = (   0.5775445   0.0443393   0.0000000), wk =   0.0219780
        k(   58) = (   0.5775445   0.0332545   0.0000000), wk =   0.0219780
        k(   59) = (   0.5775445   0.0221697   0.0000000), wk =   0.0219780
        k(   60) = (   0.5775445   0.0110848   0.0000000), wk =   0.0219780
        k(   61) = (   0.5775445   0.0000000   0.0000000), wk =   0.0219780
        k(   62) = (   0.5582930   0.0000000   0.0000000), wk =   0.0219780
        k(   63) = (   0.5390415   0.0000000   0.0000000), wk =   0.0219780
        k(   64) = (   0.5197900   0.0000000   0.0000000), wk =   0.0219780
        k(   65) = (   0.5005385   0.0000000   0.0000000), wk =   0.0219780
        k(   66) = (   0.4812871   0.0000000   0.0000000), wk =   0.0219780
        k(   67) = (   0.4620356   0.0000000   0.0000000), wk =   0.0219780
        k(   68) = (   0.4427841   0.0000000   0.0000000), wk =   0.0219780
        k(   69) = (   0.4235326   0.0000000   0.0000000), wk =   0.0219780
        k(   70) = (   0.4042811   0.0000000   0.0000000), wk =   0.0219780
        k(   71) = (   0.3850296   0.0000000   0.0000000), wk =   0.0219780
        k(   72) = (   0.3657782   0.0000000   0.0000000), wk =   0.0219780
        k(   73) = (   0.3465267   0.0000000   0.0000000), wk =   0.0219780
        k(   74) = (   0.3272752   0.0000000   0.0000000), wk =   0.0219780
        k(   75) = (   0.3080237   0.0000000   0.0000000), wk =   0.0219780
        k(   76) = (   0.2887722   0.0000000   0.0000000), wk =   0.0219780
        k(   77) = (   0.2695208   0.0000000   0.0000000), wk =   0.0219780
        k(   78) = (   0.2502693   0.0000000   0.0000000), wk =   0.0219780
        k(   79) = (   0.2310178   0.0000000   0.0000000), wk =   0.0219780
        k(   80) = (   0.2117663   0.0000000   0.0000000), wk =   0.0219780
        k(   81) = (   0.1925148   0.0000000   0.0000000), wk =   0.0219780
        k(   82) = (   0.1732633   0.0000000   0.0000000), wk =   0.0219780
        k(   83) = (   0.1540119   0.0000000   0.0000000), wk =   0.0219780
        k(   84) = (   0.1347604   0.0000000   0.0000000), wk =   0.0219780
        k(   85) = (   0.1155089   0.0000000   0.0000000), wk =   0.0219780
        k(   86) = (   0.0962574   0.0000000   0.0000000), wk =   0.0219780
        k(   87) = (   0.0770059   0.0000000   0.0000000), wk =   0.0219780
        k(   88) = (   0.0577544   0.0000000   0.0000000), wk =   0.0219780
        k(   89) = (   0.0385030   0.0000000   0.0000000), wk =   0.0219780
        k(   90) = (   0.0192515   0.0000000   0.0000000), wk =   0.0219780
        k(   91) = (   0.0000000   0.0000000   0.0000000), wk =   0.0219780

     Dense  grid:    60707 G-vectors     FFT dimensions: (  32,  32, 150)

     Estimated max dynamical RAM per process >      16.08 MB

     Estimated total dynamical RAM >     257.24 MB

     Check: negative core charge=   -0.000006

     The potential is recalculated from file :
     ./work/Al2O2.save/charge-density

     Starting wfcs are   32 randomized atomic wfcs +   38 random wfcs
     Checking if some PAW data can be deallocated... 

     Band Structure Calculation
     Davidson diagonalization with overlap
     c_bands:  1 eigenvalues not converged
     c_bands:  1 eigenvalues not converged
     c_bands:  1 eigenvalues not converged
     c_bands:  1 eigenvalues not converged
     c_bands:  1 eigenvalues not converged
     c_bands:  1 eigenvalues not converged
     c_bands:  1 eigenvalues not converged

     ethr =  2.78E-11,  avg # of iterations = 67.4

     total cpu time spent up to now is      233.1 secs

     End of band structure calculation

          k = 0.0000 0.0000 0.0000 (  7603 PWs)   bands (ev):

   -15.9060 -15.8983 -15.8320 -15.8239  -2.8015  -2.7415  -0.7780  -0.7743
    -0.7742  -0.7706  -0.7671  -0.7358  -0.7323  -0.7313  -0.7278  -0.5528
     1.4591   1.8112   3.9707   4.4527   6.2891   6.9263   8.9946   9.9748
    11.5671  11.7906  11.8089  11.8109  11.8291  13.2262  13.3103  13.3316
    13.3550  13.3761  14.3434  15.1856  16.2515  16.2725  16.3159  16.3371
    16.8617  18.4580  18.9602  19.1756  19.1997  19.2848  19.3589  19.3829
    19.3866  20.5838  20.8412  20.8608  21.1133  21.1338  22.5801  22.9871
    23.0122  23.2125  23.3151  23.6962  23.7195  24.3917  24.4181  24.7163
    24.7453  25.5754  26.5927  26.6028  26.6163  26.8905

          k = 0.0193 0.0111 0.0000 (  7611 PWs)   bands (ev):

   -15.9041 -15.8964 -15.8302 -15.8222  -2.7990  -2.7395  -0.7916  -0.7856
    -0.7791  -0.7753  -0.7683  -0.7472  -0.7449  -0.7368  -0.7323  -0.5486
     1.4728   1.8217   3.9899   4.4719   6.2948   6.9354   8.9969   9.9814
    11.5611  11.7531  11.7685  11.7990  11.8170  13.1610  13.3236  13.3458
    13.3694  13.3730  14.3717  15.2339  16.2096  16.2492  16.2576  16.3145
    16.9298  18.4633  18.9888  19.1043  19.2083  19.3167  19.3343  19.3936
    19.5104  20.6522  20.8096  20.8291  21.0933  21.1140  22.6141  22.9730
    23.0237  23.1753  23.3466  23.6985  23.7294  24.3593  24.4012  24.6500
    24.7282  25.6550  26.5798  26.5811  26.6437  26.9365

          k = 0.0385 0.0222 0.0000 (  7613 PWs)   bands (ev):

   -15.8986 -15.8909 -15.8250 -15.8170  -2.7918  -2.7336  -0.8379  -0.8255
    -0.8035  -0.7961  -0.7859  -0.7820  -0.7504  -0.7430  -0.7386  -0.5379
     1.5123   1.8521   4.0466   4.5286   6.3117   6.9626   9.0039  10.0007
    11.5428  11.6099  11.6206  11.8019  11.8196  13.0389  13.2866  13.3511
    13.3976  13.4237  14.4410  15.3644  16.0639  16.1074  16.2181  16.2867
    17.0757  18.4789  18.9768  19.0681  19.2401  19.2685  19.4074  19.4684
    19.7527  20.7189  20.7420  20.8338  21.0357  21.0592  22.6791  22.8970
    23.0939  23.0986  23.4391  23.6699  23.7935  24.2543  24.3721  24.4482
    24.7320  25.8459  26.5137  26.5207  26.7479  27.0484

          k = 0.0578 0.0333 0.0000 (  7619 PWs)   bands (ev):

   -15.8894 -15.8818 -15.8163 -15.8083  -2.7804  -2.7244  -0.9100  -0.8885
    -0.8785  -0.8730  -0.7970  -0.7932  -0.7538  -0.7491  -0.7385  -0.5229
     1.5737   1.8997   4.1382   4.6203   6.3394   7.0071   9.0152  10.0312
    11.3901  11.4075  11.5117  11.8070  11.8241  12.8869  13.1908  13.3933
    13.4427  13.4727  14.5125  15.5194  15.8879  15.9551  16.1695  16.2358
    17.2487  18.5044  18.8626  19.1366  19.1754  19.3381  19.5397  19.5814
    20.0698  20.5775  20.6273  20.9477  20.9846  21.0911  22.6226  22.7999
    23.1320  23.1732  23.5867  23.6259  23.8929  24.0829  24.2128  24.3541
    24.7342  26.0791  26.4122  26.4666  26.8644  27.1721

          k = 0.0770 0.0443 0.0000 (  7619 PWs)   bands (ev):

   -15.8767 -15.8691 -15.8043 -15.7964  -2.7660  -2.7132  -1.0010  -0.9809
    -0.9753  -0.9648  -0.8128  -0.8088  -0.7685  -0.7638  -0.7208  -0.5045
     1.6518   1.9607   4.2607   4.7435   6.3773   7.0681   9.0306  10.0692
    11.1206  11.1565  11.4670  11.8108  11.8267  12.7114  13.0695  13.4436
    13.5056  13.5243  14.5425  15.4670  15.8449  15.9037  16.1156  16.1577
    17.4379  18.5388  18.7770  19.0574  19.2615  19.4061  19.6774  19.7177
    20.3978  20.4435  20.5377  20.8390  20.9232  21.4016  22.4048  22.7044
    23.1887  23.2984  23.5768  23.7795  23.8780  24.0115  24.0337  24.3591
    24.7325  26.2857  26.2961  26.4478  26.9604  27.2716

          k = 0.0963 0.0554 0.0000 (  7627 PWs)   bands (ev):

   -15.8606 -15.8531 -15.7891 -15.7812  -2.7501  -2.7016  -1.1051  -1.1009
    -1.0936  -1.0555  -0.8334  -0.8292  -0.7877  -0.7829  -0.6979  -0.4827
     1.7415   2.0312   4.4098   4.8939   6.4246   7.1440   9.0496  10.1038
    10.8231  10.8945  11.4077  11.8095  11.8237  12.5184  12.9327  13.4897
    13.5852  13.5933  14.5036  15.2203  15.7949  15.9518  16.0590  16.2011
    17.6399  18.5805  18.7308  19.0207  19.2491  19.4722  19.7553  19.8666
    20.1981  20.5475  20.7211  20.8493  20.9365  21.7545  22.1370  22.6168
    23.0610  23.3473  23.5292  23.8012  23.9943  24.0041  24.1342  24.3959
    24.7294  26.1461  26.4447  26.4740  27.0345  27.3523

          k = 0.1155 0.0665 0.0000 (  7627 PWs)   bands (ev):

   -15.8413 -15.8338 -15.7709 -15.7631  -2.7352  -2.6921  -1.2391  -1.2299
    -1.2078  -1.1486  -0.8589  -0.8546  -0.8114  -0.8065  -0.6704  -0.4575
     1.8381   2.1074   4.5809   5.0674   6.4804   7.2331   9.0715  10.1002
    10.5112  10.6690  11.3329  11.7982  11.8106  12.3142  12.7898  13.5265
    13.6804  13.6855  14.4031  14.9435  15.7576  15.8635  15.9862  16.4318
    17.8465  18.6269  18.7270  19.0347  19.0942  19.5391  19.7117  19.9923
    20.0251  20.6044  20.6979  21.0846  21.2360  21.9017  22.1426  22.5263
    22.8299  23.1155  23.4862  23.9728  24.0602  24.2436  24.2466  24.4823
    24.7322  26.0064  26.5049  26.5425  27.0985  27.1437

          k = 0.1348 0.0776 0.0000 (  7643 PWs)   bands (ev):

   -15.8190 -15.8117 -15.7499 -15.7422  -2.7246  -2.6880  -1.3867  -1.3749
    -1.3100  -1.2377  -0.8897  -0.8852  -0.8400  -0.8350  -0.6385  -0.4289
     1.9382   2.1863   4.7701   5.2596   6.5438   7.3332   9.0958   9.9798
    10.1942  10.5666  11.2423  11.7701  11.7837  12.1047  12.6488  13.5588
    13.7899  13.7960  14.2692  14.6644  15.6480  15.7586  16.0111  16.6640
    18.0451  18.6731  18.7561  18.8312  19.0984  19.5570  19.6120  19.7883
    20.1977  20.4970  20.9498  21.3586  21.3600  21.9494  22.3849  22.5582
    22.6186  22.8142  23.4480  24.1430  24.1526  24.3352  24.4774  24.6488
    24.7553  25.8820  26.5045  26.6431  26.8959  27.0619

          k = 0.1540 0.0887 0.0000 (  7627 PWs)   bands (ev):

   -15.7940 -15.7868 -15.7263 -15.7187  -2.7225  -2.6930  -1.5411  -1.5269
    -1.4000  -1.3152  -0.9259  -0.9211  -0.8735  -0.8683  -0.6026  -0.3972
     2.0389   2.2655   4.9736   5.4670   6.6137   7.4416   9.1216   9.7409
     9.8785  10.5944  11.1367  11.7186  11.7406  11.8955  12.5157  13.5905
    13.9116  13.9200  14.1265  14.3901  15.4964  15.6620  16.0978  16.8741
    18.2254  18.5089  18.7077  18.7925  19.2000  19.3450  19.5892  19.7001
    20.3954  20.4063  21.1854  21.2318  21.7135  22.1733  22.2453  22.5023
    22.5925  22.9927  23.4129  24.1906  24.2771  24.3899  24.6788  24.8143
    24.8895  25.7938  26.4848  26.6186  26.7586  26.9535

          k = 0.1733 0.0998 0.0000 (  7629 PWs)   bands (ev):

   -15.7666 -15.7595 -15.7005 -15.6930  -2.7336  -2.7110  -1.6987  -1.6823
    -1.4706  -1.3746  -0.9678  -0.9628  -0.9121  -0.9067  -0.5632  -0.3626
     2.1382   2.3432   5.1886   5.6863   6.6891   7.5550   9.1481   9.4579
     9.5697  10.6808  11.0179  11.6410  11.6786  11.6911  12.3939  13.6235
    13.9863  14.0431  14.0532  14.1222  15.3465  15.5880  16.2076  17.0573
    18.1570  18.3856  18.6952  18.7991  19.1398  19.3172  19.3972  19.8140
    20.3383  20.6303  20.9922  21.4012  22.0728  22.1136  22.1159  22.4242
    22.8757  23.3783  23.4348  24.1901  24.3757  24.4062  24.8159  24.9085
    25.1569  25.7687  26.3222  26.4746  26.8692  26.8812

          k = 0.1925 0.1108 0.0000 (  7623 PWs)   bands (ev):

   -15.7372 -15.7302 -15.6727 -15.6654  -2.7616  -2.7447  -1.8564  -1.8381
    -1.5156  -1.4105  -1.0156  -1.0103  -0.9560  -0.9503  -0.5205  -0.3255
     2.2347   2.4183   5.4127   5.9148   6.7690   7.6685   9.1654   9.1745
     9.2731  10.7914  10.8892  11.4957  11.5380  11.5985  12.2850  13.6589
    13.8483  13.8612  14.1812  14.1909  15.2214  15.5465  16.3285  17.2142
    17.7918  18.5314  18.5566  18.7481  19.0349  19.2128  19.4274  19.9511
    20.2993  20.8298  20.9072  21.2931  21.8785  22.2055  22.4142  22.5426
    23.3091  23.3437  23.8688  24.1556  24.3878  24.4740  24.8734  25.0194
    25.4167  25.8195  26.0198  26.4866  26.8447  26.9677

          k = 0.2118 0.1219 0.0000 (  7623 PWs)   bands (ev):

   -15.7060 -15.6991 -15.6433 -15.6361  -2.8077  -2.7947  -2.0115  -1.9915
    -1.5320  -1.4207  -1.0696  -1.0639  -1.0053  -0.9992  -0.4753  -0.2863
     2.3272   2.4898   5.6438   6.1502   6.8525   7.7741   8.8758   8.9966
     9.1997  10.7546  10.9092  11.3124  11.4131  11.5081  12.1889  13.6043
    13.6975  13.7085  14.3224  14.3279  15.1372  15.5415  16.4561  17.3451
    17.4232  18.3030  18.6404  18.6700  19.0269  19.0363  19.5173  20.0687
    20.2931  20.7129  21.0698  21.2197  21.7092  22.1695  22.7042  22.9509
    23.3346  23.7312  24.1045  24.2637  24.3474  24.5864  24.8857  25.1306
    25.6476  25.7156  25.9346  26.5211  26.8368  27.0693

          k = 0.2310 0.1330 0.0000 (  7629 PWs)   bands (ev):

   -15.6735 -15.6668 -15.6127 -15.6056  -2.8701  -2.8591  -2.1617  -2.1403
    -1.5203  -1.4058  -1.1298  -1.1237  -1.0602  -1.0536  -0.4280  -0.2454
     2.4150   2.5574   5.8804   6.3908   6.9380   7.8550   8.5949   8.7562
     9.2231  10.6184  11.0078  11.1443  11.2727  11.4328  12.1046  13.3549
    13.5584  13.7391  14.4572  14.4629  15.1021  15.5715  16.5885  17.0583
    17.4448  18.0083  18.5036  18.8057  18.8672  19.0481  19.5846  20.0637
    20.3210  20.7026  20.8415  21.5515  21.6331  22.0507  23.0938  23.1134
    23.5614  24.0479  24.1074  24.3049  24.5243  24.7282  24.9560  25.2340
    25.4461  25.8299  26.0679  26.5678  26.8457  27.2029

          k = 0.2503 0.1441 0.0000 (  7627 PWs)   bands (ev):

   -15.6400 -15.6335 -15.5812 -15.5743  -2.9441  -2.9337  -2.3050  -2.2825
    -1.4839  -1.3686  -1.1963  -1.1897  -1.1205  -1.1135  -0.3793  -0.2033
     2.4976   2.6209   6.1213   6.6348   7.0235   7.8750   8.3272   8.5869
     9.2438  10.4846  10.9936  11.0249  11.1237  11.4365  12.0312  13.1141
    13.3980  13.7832  14.5727  14.5963  15.1159  15.6294  16.7026  16.7243
    17.4967  17.7021  18.3800  18.7050  18.9408  19.0760  19.6333  19.8993
    20.3805  20.6370  20.8184  21.6395  21.8797  21.9071  23.0595  23.4908
    23.9490  23.9944  24.3120  24.4005  24.5534  24.9222  25.0933  25.3055
    25.3281  25.9531  26.2170  26.6120  26.8580  27.3905

          k = 0.2695 0.1552 0.0000 (  7619 PWs)   bands (ev):

   -15.6061 -15.5997 -15.5493 -15.5425  -3.0245  -3.0137  -2.4398  -2.4164
    -1.4275  -1.3131  -1.2691  -1.2620  -1.1863  -1.1788  -0.3296  -0.1606
     2.5748   2.6804   6.3655   6.8810   7.1044   7.7905   8.0786   8.5302
     9.2612  10.3565  10.8624  10.9395  10.9736  11.5413  11.9678  12.8860
    13.2314  13.8279  14.6654  14.7175  15.1718  15.7040  16.3618  16.8623
    17.3955  17.4768  18.3152  18.5503  19.0736  19.1080  19.6605  19.6699
    20.4654  20.4671  20.9813  21.6990  21.7484  22.1760  22.9684  23.8033
    24.0159  24.1081  24.4708  24.5847  24.5894  24.9932  25.1696  25.4132
    25.4847  26.0380  26.3886  26.6446  26.8606  27.6211

          k = 0.2888 0.1663 0.0000 (  7617 PWs)   bands (ev):

   -15.5721 -15.5659 -15.5173 -15.5106  -3.1064  -3.0946  -2.5646  -2.5405
    -1.3562  -1.3479  -1.3407  -1.2575  -1.2495  -1.2432  -0.2796  -0.1177
     2.6467   2.7360   6.6123   7.1283   7.1690   7.6209   7.8616   8.5649
     9.2750  10.2369  10.7520  10.8091  10.8283  11.6877  11.9136  12.6786
    13.0647  13.8692  14.7272  14.8198  15.2602  15.7794  16.0424  17.0009
    17.0944  17.3879  18.3222  18.4043  19.1474  19.1988  19.4059  19.7034
    20.3351  20.5668  21.1475  21.5825  21.7836  22.4054  22.8711  23.7979
    24.1103  24.3320  24.3586  24.6920  24.9154  25.0267  25.4198  25.4908
    25.6607  26.1408  26.5895  26.6713  26.8420  27.8525

          k = 0.3080 0.1774 0.0000 (  7603 PWs)   bands (ev):

   -15.5385 -15.5324 -15.4856 -15.4791  -3.1857  -3.1726  -2.6781  -2.6534
    -1.4332  -1.4251  -1.3339  -1.3252  -1.2732  -1.1630  -0.2301  -0.0753
     2.7133   2.7883   6.8609   7.1847   7.3760   7.4175   7.7090   8.6368
     9.2854  10.1278  10.6634  10.6673  10.6904  11.8299  11.8685  12.5119
    12.9042  13.8992  14.7529  14.8962  15.3717  15.7518  15.8352  16.8033
    17.1382  17.2713  18.2699  18.3649  19.1726  19.1983  19.3058  19.7477
    20.2393  20.6737  21.2990  21.4183  21.8764  22.5305  22.7844  23.7149
    24.1023  24.2752  24.6892  24.7305  24.8913  25.4737  25.5629  25.6257
    25.7899  26.3177  26.7088  26.7967  26.8078  27.9173

          k = 0.3273 0.1884 0.0000 (  7585 PWs)   bands (ev):

   -15.5057 -15.4998 -15.4548 -15.4484  -3.2589  -3.2445  -2.7792  -2.7542
    -1.5240  -1.5152  -1.4152  -1.4059  -1.1830  -1.0756  -0.1816  -0.0338
     2.7752   2.8379   7.1049   7.1109   7.2076   7.6226   7.6674   8.7151
     9.2928  10.0307  10.5229  10.5664  10.5969  11.8323  11.9045  12.4431
    12.7554  13.9034  14.7455  14.9394  15.4955  15.4991  15.8482  16.5264
    17.1699  17.2721  18.1501  18.3789  19.0121  19.2640  19.3801  19.8196
    20.1718  20.7748  21.2662  21.4202  21.9741  22.5326  22.7232  23.6110
    24.1012  24.2546  24.7217  24.8968  25.0162  25.6387  25.7921  25.8800
    25.9027  26.5685  26.7389  26.7746  27.0222  27.9213

          k = 0.3465 0.1995 0.0000 (  7583 PWs)   bands (ev):

   -15.4741 -15.4683 -15.4250 -15.4188  -3.3237  -3.3080  -2.8672  -2.8418
    -1.6200  -1.6105  -1.5011  -1.4910  -1.0884  -0.9839  -0.1347   0.0062
     2.8330   2.8853   6.9520   7.0022   7.3605   7.7149   7.8675   8.7853
     9.2985   9.9467  10.3792  10.4617  10.5520  11.8050  11.8535  12.5289
    12.6227  13.8605  14.7223  14.9434  15.2790  15.6310  15.8025  16.2675
    17.1056  17.3991  18.0475  18.2986  18.9852  19.3462  19.4174  19.9263
    20.1187  20.8606  21.1377  21.4937  22.0847  22.4303  22.6988  23.4932
    24.1104  24.2889  24.6921  24.9107  25.2783  25.7491  25.9493  26.0266
    26.1541  26.7443  26.8476  26.8775  27.2183  27.9506

          k = 0.3658 0.2106 0.0000 (  7587 PWs)   bands (ev):

   -15.4440 -15.4384 -15.3968 -15.3908  -3.3781  -3.3612  -2.9411  -2.9156
    -1.7208  -1.7106  -1.5910  -1.5802  -0.9922  -0.8907  -0.0901   0.0442
     2.8874   2.9314   6.7760   6.8062   7.6097   7.8004   8.1095   8.8391
     9.3040   9.8762  10.2388  10.3792  10.5281  11.7363  11.7866  12.5096
    12.7105  13.7534  14.7049  14.9039  15.0950  15.7001  15.7643  16.0294
    17.0690  17.5163  17.9624  18.1490  19.0701  19.4300  19.4442  20.0593
    20.0628  20.9264  21.0438  21.5102  22.2143  22.2632  22.7154  23.3692
    24.1327  24.3493  24.6684  24.9220  25.4373  25.9392  26.1123  26.1689
    26.1701  26.9225  27.0166  27.1076  27.3892  28.0134

          k = 0.3850 0.2217 0.0000 (  7584 PWs)   bands (ev):

   -15.4160 -15.4105 -15.3705 -15.3645  -3.4206  -3.4028  -3.0005  -2.9749
    -1.8256  -1.8147  -1.6846  -1.6729  -0.8970  -0.7984  -0.0484   0.0797
     2.9394   2.9770   6.6000   6.6220   7.8568   7.9004   8.3472   8.8716
     9.3112   9.8196  10.1033  10.3201  10.5236  11.6099  11.7770  12.4189
    12.9309  13.5865  14.6745  14.8212  14.9626  15.5584  15.8126  15.8911
    17.0302  17.6205  17.8936  17.9950  19.2083  19.4343  19.5539  19.9906
    20.2071  20.9764  20.9873  21.4771  22.0651  22.3590  22.7665  23.2501
    24.1709  24.4095  24.6694  24.9344  25.5204  26.0361  26.1932  26.2846
    26.3214  27.1340  27.1835  27.3032  27.5333  28.1322

          k = 0.4043 0.2328 0.0000 (  7594 PWs)   bands (ev):

   -15.3902 -15.3848 -15.3462 -15.3404  -3.4503  -3.4317  -3.0449  -3.0193
    -1.9337  -1.9220  -1.7811  -1.7686  -0.8052  -0.7094  -0.0100   0.1125
     2.9898   3.0227   6.4326   6.4511   8.0045   8.1004   8.5791   8.8810
     9.3220   9.7767   9.9739  10.2838  10.5374  11.4937  11.7757  12.3522
    13.1712  13.3810  14.5578  14.7017  14.9397  15.3969  15.6139  16.0040
    16.9601  17.7094  17.8383  17.8667  19.3717  19.4430  19.6690  19.8995
    20.3622  20.9573  21.0225  21.4125  21.8580  22.5101  22.8366  23.1495
    24.2263  24.4488  24.7038  24.9616  25.5810  25.8635  26.4603  26.4658
    26.4716  27.2518  27.3655  27.3944  27.6541  28.3274

          k = 0.4235 0.2439 0.0000 (  7574 PWs)   bands (ev):

   -15.3669 -15.3617 -15.3243 -15.3186  -3.4665  -3.4472  -3.0741  -3.0486
    -2.0443  -2.0318  -1.8798  -1.8665  -0.7189  -0.6258   0.0247   0.1420
     3.0393   3.0690   6.2777   6.2947   8.1080   8.3371   8.8028   8.8689
     9.3384   9.7474   9.8519  10.2669  10.5679  11.3943  11.7820  12.3102
    13.1576  13.4240  14.3706  14.5568  14.9963  15.2306  15.4271  16.0959
    16.8490  17.7618  17.7836  17.7935  19.4643  19.5498  19.7803  19.7968
    20.5190  20.9328  21.0806  21.3365  21.6565  22.6600  22.9066  23.0809
    24.2928  24.4543  24.7717  25.0125  25.6457  25.6948  26.5666  26.6585
    26.7548  27.2690  27.3770  27.5483  27.7630  28.4892

          k = 0.4428 0.2550 0.0000 (  7566 PWs)   bands (ev):

   -15.3463 -15.3412 -15.3050 -15.2993  -3.4689  -3.4491  -3.0881  -3.0628
    -2.1562  -2.1430  -1.9799  -1.9658  -0.6401  -0.5496   0.0554   0.1681
     3.0881   3.1157   6.1378   6.1543   8.2058   8.5631   8.8392   9.0155
     9.3626   9.7311   9.7394  10.2644  10.6136  11.3142  11.7946  12.2922
    12.9311  13.6843  14.1566  14.4003  15.0710  15.0807  15.2461  16.1597
    16.7076  17.6606  17.7563  17.8459  19.5027  19.6928  19.7358  19.8779
    20.6717  20.8937  21.1655  21.2670  21.4726  22.8031  22.9611  23.0528
    24.3480  24.4266  24.8681  25.0796  25.5676  25.7270  26.6219  26.8575
    27.0436  27.2255  27.2911  27.7164  27.8788  28.3695

          k = 0.4620 0.2660 0.0000 (  7562 PWs)   bands (ev):

   -15.3286 -15.3236 -15.2884 -15.2828  -3.4576  -3.4375  -3.0872  -3.0620
    -2.2683  -2.2544  -2.0805  -2.0656  -0.5707  -0.4824   0.0818   0.1905
     3.1362   3.1623   6.0149   6.0313   8.2930   8.7723   8.7974   9.2126
     9.3969   9.6380   9.7289  10.2707  10.6732  11.2542  11.8115  12.2957
    12.7113  13.9325  13.9446  14.2450  14.9306  15.0680  15.1726  16.1903
    16.5521  17.5403  17.7248  17.9041  19.5557  19.5966  19.9255  19.9549
    20.8100  20.8303  21.2160  21.2864  21.3213  22.9345  22.9911  23.0647
    24.3517  24.3726  24.9858  25.1436  25.5257  25.8323  26.6264  27.0346
    27.1578  27.2021  27.3356  27.8527  28.0200  28.1335

          k = 0.4813 0.2771 0.0000 (  7564 PWs)   bands (ev):

   -15.3139 -15.3089 -15.2745 -15.2690  -3.4331  -3.4129  -3.0719  -3.0470
    -2.3791  -2.3646  -2.1805  -2.1647  -0.5116  -0.4254   0.1037   0.2093
     3.1824   3.2075   5.9106   5.9272   8.3648   8.7486   8.9561   9.3876
     9.4445   9.5518   9.7411  10.2814  10.7446  11.2136  11.8302  12.3168
    12.5061  13.7078  14.1014  14.1849  14.8319  14.8939  15.2623  16.1870
    16.3953  17.3901  17.6981  17.9644  19.5147  19.6160  20.0099  20.1148
    20.7442  20.9092  21.1877  21.2312  21.4443  22.9938  23.0492  23.1065
    24.2793  24.2972  25.1178  25.1848  25.5881  25.9659  26.6012  27.0066
    27.0941  27.2833  27.6284  27.8603  27.9404  28.1951

          k = 0.5005 0.2882 0.0000 (  7566 PWs)   bands (ev):

   -15.3021 -15.2972 -15.2634 -15.2580  -3.3968  -3.3764  -3.0433  -3.0187
    -2.4866  -2.4715  -2.2783  -2.2618  -0.4639  -0.3792   0.1213   0.2242
     3.2250   3.2494   5.8265   5.8436   8.4172   8.6980   9.1044   9.4835
     9.5073   9.5296   9.7719  10.2934  10.8249  11.1904  11.8477  12.3223
    12.3500  13.4917  13.9785  14.3419  14.7287  14.8397  15.3428  16.1551
    16.2464  17.2090  17.6762  18.0294  19.4515  19.6722  20.0460  20.2999
    20.6451  20.9371  21.1780  21.2368  21.6324  22.9681  23.1411  23.1633
    24.1525  24.2033  25.1916  25.2595  25.7196  26.1291  26.5780  26.8838
    27.0603  27.2522  27.8006  27.8926  27.9898  28.4016

          k = 0.5198 0.2993 0.0000 (  7562 PWs)   bands (ev):

   -15.2932 -15.2884 -15.2551 -15.2496  -3.3512  -3.3309  -3.0036  -2.9792
    -2.5876  -2.5721  -2.3717  -2.3545  -0.4278  -0.3443   0.1345   0.2355
     3.2617   3.2856   5.7637   5.7813   8.4481   8.6503   9.2123   9.4352
     9.5802   9.6267   9.8248  10.3046  10.9092  11.1815  11.8616  12.1677
    12.3880  13.2955  13.8826  14.3603  14.5803  15.0073  15.4086  16.1057
    16.1133  17.0040  17.6594  18.0965  19.4091  19.7134  20.0683  20.4776
    20.5453  20.9385  21.1749  21.2909  21.8401  22.9122  23.2052  23.2209
    24.0114  24.0968  25.1678  25.4092  25.8604  26.3181  26.5775  26.7070
    27.0659  27.0865  27.8896  28.0060  28.2276  28.4710

          k = 0.5390 0.3104 0.0000 (  7560 PWs)   bands (ev):

   -15.2871 -15.2823 -15.2494 -15.2439  -3.3016  -3.2813  -2.9571  -2.9329
    -2.6769  -2.6610  -2.4562  -2.4385  -0.4030  -0.3203   0.1435   0.2433
     3.2901   3.3134   5.7223   5.7402   8.4598   8.6100   9.2852   9.4061
     9.6461   9.6840   9.8851  10.3138  10.9887  11.1824  11.8705  12.0494
    12.4238  13.1336  13.8168  14.3221  14.4592  15.2409  15.4558  16.0096
    16.0531  16.7878  17.6483  18.1578  19.3866  19.7350  20.0812  20.4576
    20.6450  20.9706  21.1605  21.3235  22.0533  22.8244  23.2399  23.2685
    23.8889  23.9924  25.1309  25.5687  25.9613  26.4544  26.5200  26.5994
    26.9675  27.1982  27.7788  28.2299  28.2808  28.4971

          k = 0.5583 0.3215 0.0000 (  7564 PWs)   bands (ev):

   -15.2836 -15.2788 -15.2461 -15.2407  -3.2584  -3.2381  -2.9135  -2.8894
    -2.7437  -2.7276  -2.5223  -2.5043  -0.3888  -0.3066   0.1487   0.2477
     3.3079   3.3309   5.7005   5.7186   8.4592   8.5820   9.3309   9.3923
     9.6873   9.7185   9.9264  10.3199  11.0497  11.1875  11.8748  11.9744
    12.4498  13.0238  13.7801  14.2875  14.3782  15.4363  15.4832  15.9688
    16.0120  16.5845  17.6423  18.2028  19.3797  19.7422  20.0879  20.3951
    20.7970  21.0427  21.1163  21.3030  22.2501  22.7110  23.2511  23.2994
    23.8073  23.9139  25.0999  25.7386  26.0078  26.1980  26.6286  26.7025
    26.9403  27.3931  27.6459  27.9700  28.5744  28.7376

          k = 0.5775 0.3325 0.0000 (  7570 PWs)   bands (ev):

   -15.2825 -15.2778 -15.2451 -15.2397  -3.2396  -3.2193  -2.8931  -2.8690
    -2.7704  -2.7541  -2.5500  -2.5321  -0.3844  -0.3023   0.1503   0.2490
     3.3138   3.3367   5.6947   5.7128   8.4566   8.5714   9.3488   9.3888
     9.6987   9.7337   9.9381  10.3222  11.0739  11.1908  11.8760  11.9485
    12.4599  12.9837  13.7685  14.2744  14.3490  15.4919  15.5021  15.9955
    15.9980  16.4725  17.6404  18.2202  19.3801  19.7436  20.0900  20.3710
    20.8950  21.0587  21.1144  21.2505  22.3587  22.6321  23.2516  23.3099
    23.7787  23.8839  25.0877  25.8696  26.0172  26.0340  26.6437  26.7880
    26.9395  27.5770  27.5813  27.7653  28.8065  28.9143

          k = 0.5775 0.3215 0.0000 (  7564 PWs)   bands (ev):

   -15.2828 -15.2780 -15.2453 -15.2399  -3.2450  -3.2247  -2.8992  -2.8751
    -2.7630  -2.7468  -2.5421  -2.5242  -0.3854  -0.3033   0.1499   0.2487
     3.3125   3.3354   5.6955   5.7136   8.4579   8.5745   9.3422   9.3896
     9.6977   9.7266   9.9378  10.3215  11.0671  11.1894  11.8758  11.9549
    12.4568  12.9948  13.7715  14.2780  14.3569  15.4897  15.4922  15.9715
    16.0006  16.5137  17.6411  18.2151  19.3789  19.7428  20.0893  20.3781
    20.8502  21.0747  21.0919  21.2853  22.3243  22.6588  23.2522  23.3074
    23.7860  23.8924  25.0913  25.8239  26.0167  26.0888  26.6380  26.7630
    26.9368  27.5021  27.5967  27.8473  28.7175  28.8255

          k = 0.5775 0.3104 0.0000 (  7564 PWs)   bands (ev):

   -15.2835 -15.2787 -15.2459 -15.2405  -3.2602  -3.2398  -2.9156  -2.8916
    -2.7421  -2.7259  -2.5203  -2.5024  -0.3883  -0.3061   0.1489   0.2478
     3.3082   3.3313   5.6977   5.7159   8.4629   8.5840   9.3234   9.3912
     9.6958   9.7069   9.9374  10.3195  11.0472  11.1854  11.8749  11.9738
    12.4487  13.0254  13.7805  14.2875  14.3789  15.4699  15.4844  15.9089
    16.0150  16.6134  17.6421  18.1997  19.3757  19.7399  20.0878  20.3988
    20.7630  21.0012  21.1469  21.3500  22.2498  22.7101  23.2545  23.2991
    23.8069  23.9141  25.1019  25.7528  26.0151  26.1829  26.6197  26.6979
    26.9264  27.3735  27.6448  27.9837  28.5967  28.6976

          k = 0.5775 0.2993 0.0000 (  7560 PWs)   bands (ev):

   -15.2847 -15.2799 -15.2471 -15.2416  -3.2834  -3.2630  -2.9400  -2.9159
    -2.7095  -2.6935  -2.4872  -2.4694  -0.3930  -0.3107   0.1471   0.2463
     3.3012   3.3244   5.7005   5.7189   8.4730   8.6007   9.2910   9.3933
     9.6721   9.6961   9.9395  10.3160  11.0151  11.1786  11.8729  12.0040
    12.4356  13.0744  13.7961  14.3018  14.4142  15.4428  15.4767  15.8290
    16.0393  16.7470  17.6434  18.1735  19.3699  19.7323  20.0855  20.4337
    20.6515  20.9169  21.2065  21.4262  22.1573  22.7638  23.2590  23.2847
    23.8405  23.9470  25.1199  25.6861  26.0143  26.2826  26.5863  26.6056
    26.9060  27.2390  27.7020  28.1296  28.4923  28.5491

          k = 0.5775 0.2882 0.0000 (  7562 PWs)   bands (ev):

   -15.2863 -15.2815 -15.2486 -15.2431  -3.3123  -3.2919  -2.9694  -2.9453
    -2.6677  -2.6518  -2.4459  -2.4282  -0.3993  -0.3168   0.1448   0.2443
     3.2917   3.3152   5.7027   5.7216   8.4893   8.6253   9.2449   9.3956
     9.6232   9.6988   9.9448  10.3110  10.9726  11.1685  11.8696  12.0439
    12.4178  13.1401  13.8190  14.3192  14.4615  15.4154  15.4674  15.7446
    16.0737  16.8986  17.6447  18.1360  19.3609  19.7163  20.0825  20.4827
    20.5222  20.8332  21.2659  21.5089  22.0558  22.8119  23.2642  23.2652
    23.8846  23.9889  25.1457  25.6280  26.0155  26.3725  26.4972  26.5360
    26.8801  27.1060  27.7421  28.2763  28.3997  28.4162

          k = 0.5775 0.2771 0.0000 (  7560 PWs)   bands (ev):

   -15.2882 -15.2834 -15.2504 -15.2450  -3.3451  -3.3245  -3.0018  -2.9776
    -2.6187  -2.6031  -2.3984  -2.3810  -0.4069  -0.3243   0.1418   0.2418
     3.2799   3.3037   5.7034   5.7231   8.5128   8.6583   9.1863   9.3981
     9.5611   9.7048   9.9528  10.3043  10.9220  11.1551  11.8647  12.0915
    12.3958  13.2204  13.8500  14.3373  14.5193  15.3905  15.4572  15.6629
    16.1178  17.0604  17.6461  18.0869  19.3487  19.6873  20.0789  20.3788
    20.5452  20.7591  21.3233  21.5966  21.9489  22.8524  23.2377  23.2720
    23.9364  24.0370  25.1792  25.5787  26.0190  26.3803  26.4278  26.4683
    26.8704  26.9778  27.7257  28.2867  28.3725  28.4190

          k = 0.5775 0.2660 0.0000 (  7560 PWs)   bands (ev):

   -15.2906 -15.2857 -15.2526 -15.2472  -3.3801  -3.3595  -3.0358  -3.0114
    -2.5641  -2.5488  -2.3465  -2.3294  -0.4159  -0.3331   0.1384   0.2389
     3.2660   3.2902   5.7016   5.7225   8.5443   8.7003   9.1169   9.4007
     9.4880   9.7134   9.9627  10.2959  10.8657  11.1383  11.8582  12.1450
    12.3701  13.3135  13.8895  14.3527  14.5861  15.3700  15.4469  15.5888
    16.1714  17.2281  17.6475  18.0260  19.3334  19.6417  20.0746  20.2247
    20.6203  20.7016  21.3780  21.6885  21.8381  22.8856  23.2047  23.2785
    23.9925  24.0889  25.2201  25.5369  26.0241  26.2596  26.3842  26.4175
    26.8582  26.9104  27.6176  28.2457  28.3602  28.5521

          k = 0.5775 0.2550 0.0000 (  7560 PWs)   bands (ev):

   -15.2932 -15.2884 -15.2551 -15.2496  -3.4163  -3.3955  -3.0704  -3.0458
    -2.5054  -2.4904  -2.2912  -2.2744  -0.4259  -0.3428   0.1346   0.2355
     3.2504   3.2751   5.6965   5.7192   8.5843   8.7516   9.0388   9.4026
     9.4070   9.7239   9.9734  10.2858  10.8057  11.1182  11.8499  12.2029
    12.3415  13.4172  13.9377  14.3614  14.6605  15.3537  15.4374  15.5282
    16.2336  17.3986  17.6490  17.9528  19.3155  19.5784  20.0632  20.0699
    20.6645  20.7068  21.4295  21.7247  21.7841  22.9123  23.1654  23.2832
    24.0493  24.1422  25.2667  25.4996  26.0277  26.1383  26.2872  26.3459
    26.7524  27.0024  27.4371  28.2593  28.3740  28.6670

          k = 0.5775 0.2439 0.0000 (  7568 PWs)   bands (ev):

   -15.2961 -15.2912 -15.2578 -15.2523  -3.4529  -3.4320  -3.1049  -3.0801
    -2.4433  -2.4287  -2.2334  -2.2170  -0.4368  -0.3535   0.1304   0.2319
     3.2334   3.2586   5.6875   5.7127   8.6330   8.8124   8.9536   9.3166
     9.4073   9.7356   9.9846  10.2739  10.7437  11.0951  11.8400  12.2636
    12.3108  13.5297  13.9945  14.3596  14.7413  15.3354  15.4293  15.4914
    16.3035  17.5694  17.6507  17.8674  19.2953  19.4996  19.8987  20.0643
    20.6480  20.8033  21.4773  21.6091  21.8833  22.9339  23.1199  23.2847
    24.1037  24.1949  25.3153  25.4615  26.0182  26.0236  26.1832  26.2458
    26.6685  27.1242  27.2218  28.2929  28.4056  28.7491

          k = 0.5775 0.2328 0.0000 (  7556 PWs)   bands (ev):

   -15.2992 -15.2943 -15.2607 -15.2552  -3.4893  -3.4684  -3.1391  -3.1141
    -2.3787  -2.3645  -2.1737  -2.1578  -0.4485  -0.3650   0.1260   0.2280
     3.2152   3.2410   5.6741   5.7025   8.6901   8.8631   8.8829   9.2217
     9.4119   9.7480   9.9957  10.2602  10.6811  11.0693  11.8286  12.2784
    12.3261  13.6496  14.0596  14.3445  14.8270  15.3060  15.4234  15.4906
    16.3796  17.6526  17.7372  17.7702  19.2732  19.4104  19.7353  20.0583
    20.6492  20.9084  21.4920  21.5209  21.9860  22.9517  23.0680  23.2817
    24.1529  24.2452  25.3578  25.4149  25.9008  26.0030  26.0832  26.1448
    26.6162  26.9927  27.2608  28.3289  28.4424  28.7780

          k = 0.5775 0.2217 0.0000 (  7564 PWs)   bands (ev):

   -15.3024 -15.2976 -15.2638 -15.2583  -3.5252  -3.5042  -3.1725  -3.1473
    -2.3122  -2.2985  -2.1126  -2.0972  -0.4608  -0.3771   0.1212   0.2239
     3.1962   3.2226   5.6561   5.6884   8.7550   8.7687   8.9628   9.1227
     9.4184   9.7604  10.0064  10.2449  10.6191  11.0412  11.8160  12.2453
    12.3889  13.7753  14.1323  14.3147  14.9168  15.2669  15.4202  15.5251
    16.4598  17.6550  17.6619  17.8975  19.2492  19.3164  19.5795  20.0520
    20.6638  21.0207  21.3737  21.5598  22.0921  22.9667  23.0102  23.2733
    24.1949  24.2918  25.3490  25.3785  25.7867  25.9592  26.0061  26.0636
    26.6029  26.7599  27.4051  28.3614  28.4622  28.7412

          k = 0.5775 0.2106 0.0000 (  7566 PWs)   bands (ev):

   -15.3058 -15.3009 -15.2670 -15.2615  -3.5603  -3.5391  -3.2050  -3.1796
    -2.2444  -2.2311  -2.0507  -2.0358  -0.4735  -0.3897   0.1163   0.2196
     3.1765   3.2035   5.6336   5.6705   8.6713   8.8264   9.0208   9.0521
     9.4281   9.7727  10.0165  10.2280  10.5585  11.0113  11.8026  12.2121
    12.4512  13.9056  14.2120  14.2710  15.0094  15.2249  15.4203  15.5864
    16.5405  17.5458  17.6581  18.0422  19.2219  19.2245  19.4405  20.0452
    20.6877  21.1384  21.2546  21.5935  22.2014  22.9469  22.9796  23.2585
    24.2284  24.3334  25.2586  25.3544  25.6759  25.8934  25.9765  26.0154
    26.5298  26.6266  27.5521  28.3886  28.4232  28.6512

          k = 0.5775 0.1995 0.0000 (  7570 PWs)   bands (ev):

   -15.3093 -15.3044 -15.2703 -15.2648  -3.5943  -3.5730  -3.2364  -3.2108
    -2.1757  -2.1629  -1.9883  -1.9739  -0.4866  -0.4026   0.1112   0.2152
     3.1564   3.1842   5.6068   5.6488   8.5725   8.9017   8.9174   9.1502
     9.4430   9.7845  10.0259  10.2098  10.5000  10.9799  11.7887  12.1792
    12.5122  14.0392  14.2151  14.2981  15.1039  15.1834  15.4243  15.6684
    16.6151  17.4284  17.6620  18.1579  19.1328  19.1967  19.3335  20.0381
    20.7174  21.1348  21.2601  21.6213  22.3139  22.8786  22.9911  23.2368
    24.2529  24.3684  25.1447  25.2794  25.5678  25.8129  26.0013  26.0050
    26.3070  26.6786  27.6954  28.2942  28.4104  28.5327

          k = 0.5775 0.1884 0.0000 (  7572 PWs)   bands (ev):

   -15.3129 -15.3080 -15.2737 -15.2682  -3.6271  -3.6056  -3.2665  -3.2407
    -2.1066  -2.0943  -1.9259  -1.9121  -0.4999  -0.4158   0.1061   0.2107
     3.1362   3.1647   5.5760   5.6236   8.4731   8.8132   8.9774   9.2566
     9.4665   9.7954  10.0344  10.1903  10.4442  10.9476  11.7746  12.1471
    12.5710  14.1491  14.1754  14.3896  15.1433  15.1993  15.4323  15.7670
    16.6695  17.3241  17.6671  18.2245  19.0493  19.1680  19.2795  20.0307
    20.7502  21.0148  21.3837  21.6425  22.4292  22.8065  23.0017  23.2079
    24.2682  24.3939  25.0164  25.1716  25.4606  25.7254  26.0180  26.0748
    26.0965  26.7482  27.8069  28.1268  28.4056  28.4275

          k = 0.5775 0.1774 0.0000 (  7576 PWs)   bands (ev):

   -15.3165 -15.3115 -15.2771 -15.2715  -3.6585  -3.6369  -3.2954  -3.2694
    -2.0376  -2.0259  -1.8639  -1.8507  -0.5134  -0.4292   0.1009   0.2062
     3.1161   3.1452   5.5418   5.5953   8.3741   8.7095   9.0480   9.3706
     9.5035   9.8054  10.0421  10.1699  10.3917  10.9148  11.7607  12.1161
    12.6272  14.0751  14.3127  14.4859  15.1047  15.2947  15.4447  15.8790
    16.6771  17.2604  17.6736  18.2260  18.9733  19.1378  19.2958  20.0233
    20.7842  20.8949  21.5068  21.6564  22.5468  22.7320  23.0116  23.1718
    24.2747  24.4044  24.8833  25.0551  25.3513  25.6361  25.9039  26.0550
    26.1705  26.8255  27.7408  28.1043  28.2844  28.4404

          k = 0.5775 0.1663 0.0000 (  7580 PWs)   bands (ev):

   -15.3200 -15.3151 -15.2804 -15.2749  -3.6883  -3.6667  -3.3227  -3.2966
    -1.9692  -1.9579  -1.8027  -1.7901  -0.5268  -0.4426   0.0958   0.2017
     3.0962   3.1261   5.5048   5.5643   8.2762   8.6072   9.1075   9.4913
     9.5595   9.8141  10.0489  10.1489  10.3426  10.8820  11.7471  12.0864
    12.6800  13.9944  14.4505  14.5860  15.0673  15.3892  15.4614  16.0017
    16.6137  17.2625  17.6819  18.1674  18.9050  19.1057  19.3781  20.0157
    20.7755  20.8180  21.6265  21.6621  22.6572  22.6662  23.0211  23.1289
    24.2731  24.3898  24.7529  24.9522  25.2360  25.5483  25.7352  26.1060
    26.2794  26.8997  27.5190  28.1809  28.2238  28.4500

          k = 0.5775 0.1552 0.0000 (  7584 PWs)   bands (ev):

   -15.3235 -15.3185 -15.2837 -15.2782  -3.7166  -3.6948  -3.3486  -3.3223
    -1.9017  -1.8909  -1.7427  -1.7307  -0.5401  -0.4559   0.0908   0.1973
     3.0767   3.1074   5.4655   5.5312   8.1805   8.5071   9.1521   9.6168
     9.6387   9.8213  10.0548  10.1277  10.2976  10.8495  11.7341  12.0580
    12.7292  13.9081  14.5875  14.6891  15.0308  15.4812  15.4831  16.1328
    16.4906  17.3203  17.6922  18.0704  18.8444  19.0716  19.5051  20.0082
    20.6571  20.8503  21.6590  21.7382  22.5859  22.7860  23.0304  23.0802
    24.2640  24.3378  24.6303  24.8827  25.1123  25.4642  25.5952  26.1641
    26.3939  26.9587  27.2720  28.1078  28.3642  28.4568

          k = 0.5775 0.1441 0.0000 (  7566 PWs)   bands (ev):

   -15.3270 -15.3219 -15.2870 -15.2814  -3.7432  -3.7213  -3.3729  -3.3464
    -1.8357  -1.8254  -1.6844  -1.6730  -0.5532  -0.4691   0.0859   0.1930
     3.0579   3.0893   5.4249   5.4966   8.0875   8.4101   9.1823   9.7323
     9.7533   9.8268  10.0599  10.1071  10.2567  10.8178  11.7219  12.0309
    12.7743  13.8167  14.7229  14.7944  14.9952  15.5075  15.5717  16.2705
    16.3344  17.4083  17.7049  17.9551  18.7912  19.0353  19.6567  20.0008
    20.5403  20.8805  21.6470  21.8351  22.5233  22.9049  23.0274  23.0395
    24.2465  24.2485  24.5188  24.8543  24.9823  25.3851  25.4841  26.2190
    26.5078  26.9899  27.0304  28.0774  28.4614  28.5042

          k = 0.5775 0.1330 0.0000 (  7574 PWs)   bands (ev):

   -15.3302 -15.3252 -15.2901 -15.2845  -3.7681  -3.7461  -3.3956  -3.3690
    -1.7716  -1.7618  -1.6282  -1.6174  -0.5660  -0.4821   0.0811   0.1888
     3.0398   3.0719   5.3835   5.4611   7.9980   8.3168   9.2013   9.8303
     9.8485   9.8860  10.0641  10.0889  10.2203  10.7873  11.7105  12.0051
    12.8153  13.7206  14.8555  14.9009  14.9604  15.5361  15.6578  16.1622
    16.4127  17.5106  17.7205  17.8345  18.7449  18.9965  19.8192  19.9936
    20.4258  20.9079  21.6265  21.9069  22.4784  22.9727  23.0204  23.0483
    24.1296  24.2274  24.4202  24.8525  24.8584  25.3118  25.3978  26.2460
    26.6150  26.8224  26.9860  28.0964  28.4642  28.5895

          k = 0.5775 0.1219 0.0000 (  7572 PWs)   bands (ev):

   -15.3334 -15.3284 -15.2931 -15.2875  -3.7911  -3.7690  -3.4166  -3.3899
    -1.7099  -1.7005  -1.5745  -1.5642  -0.5785  -0.4947   0.0766   0.1848
     3.0226   3.0554   5.3421   5.4254   7.9129   8.2281   9.2128   9.8318
     9.9757  10.0052  10.0676  10.0892  10.1886  10.7583  11.7000  11.9803
    12.8521  13.6201  14.9264  14.9841  15.0079  15.5677  15.7392  15.9829
    16.5573  17.6190  17.7165  17.7393  18.7052  18.9551  19.9823  19.9870
    20.3142  20.9323  21.6001  21.9418  22.4614  22.9187  23.0568  23.1279
    24.0047  24.2018  24.3349  24.7313  24.8837  25.2449  25.3305  26.1880
    26.7049  26.7097  26.9496  28.1612  28.4653  28.5338

          k = 0.5775 0.1108 0.0000 (  7578 PWs)   bands (ev):

   -15.3364 -15.3313 -15.2959 -15.2903  -3.8123  -3.7901  -3.4360  -3.4091
    -1.6510  -1.6421  -1.5237  -1.5139  -0.5906  -0.5070   0.0724   0.1811
     3.0065   3.0399   5.3014   5.3900   7.8326   8.1446   9.2195   9.8312
    10.0273  10.0704  10.1117  10.1616  10.1892  10.7311  11.6906  11.9562
    12.8847  13.5153  14.8935  15.1075  15.1143  15.6014  15.8016  15.8150
    16.7017  17.6065  17.7288  17.7618  18.6718  18.9106  19.9801  20.1384
    20.2065  20.9533  21.5726  21.9359  22.4739  22.8676  23.0651  23.2195
    23.8884  24.1727  24.2625  24.6259  24.9236  25.1846  25.2779  26.0190
    26.7072  26.7807  26.8912  28.2606  28.4650  28.4923

          k = 0.5775 0.0998 0.0000 (  7578 PWs)   bands (ev):

   -15.3391 -15.3341 -15.2985 -15.2929  -3.8316  -3.8094  -3.4536  -3.4265
    -1.5955  -1.5870  -1.4763  -1.4670  -0.6021  -0.5188   0.0684   0.1775
     2.9915   3.0255   5.2621   5.3557   7.7579   8.0670   9.2230   9.8286
    10.0133  10.0726  10.1392  10.2529  10.3279  10.7061  11.6821  11.9324
    12.9132  13.4063  14.8619  15.2184  15.2251  15.6227  15.6365  15.8840
    16.8415  17.5096  17.7883  17.8369  18.6448  18.8631  19.9739  20.1037
    20.2758  20.9707  21.5530  21.8995  22.5040  22.8211  23.0730  23.2789
    23.8011  24.1414  24.2021  24.5417  24.9753  25.1309  25.2368  25.7966
    26.7683  26.8214  26.8225  28.3826  28.4632  28.4742

          k = 0.5775 0.0887 0.0000 (  7572 PWs)   bands (ev):

   -15.3417 -15.3366 -15.3009 -15.2953  -3.8489  -3.8267  -3.4694  -3.4422
    -1.5438  -1.5357  -1.4325  -1.4237  -0.6130  -0.5299   0.0648   0.1743
     2.9777   3.0124   5.2250   5.3231   7.6893   7.9958   9.2245   9.8242
     9.9968  10.0743  10.1213  10.3967  10.4699  10.6839  11.6746  11.9085
    12.9378  13.2938  14.8320  15.3203  15.3346  15.4489  15.6717  15.9455
    16.9682  17.4346  17.8193  17.9399  18.6243  18.8124  19.9679  20.0072
    20.3823  20.9846  21.5541  21.8471  22.5361  22.7799  23.0804  23.2836
    23.7675  24.1089  24.1524  24.4818  25.0381  25.0838  25.2053  25.5593
    26.7485  26.8273  26.8509  28.4588  28.4865  28.5174

          k = 0.5775 0.0776 0.0000 (  7568 PWs)   bands (ev):

   -15.3440 -15.3389 -15.3031 -15.2974  -3.8643  -3.8420  -3.4834  -3.4561
    -1.4966  -1.4888  -1.3929  -1.3845  -0.6232  -0.5404   0.0615   0.1714
     2.9653   3.0005   5.1906   5.2928   7.6274   7.9316   9.2249   9.8185
     9.9809  10.0755  10.1074  10.5383  10.6106  10.6677  11.6682  11.8839
    12.9587  13.1785  14.8042  15.2833  15.4179  15.4352  15.7061  15.9988
    17.0605  17.4011  17.8550  18.0348  18.6111  18.7585  19.9162  19.9641
    20.4460  20.9951  21.5894  21.7890  22.5603  22.7440  23.0872  23.2325
    23.7896  24.0766  24.1124  24.4469  25.0431  25.1121  25.1823  25.3214
    26.6778  26.7939  26.9396  28.4480  28.5318  28.6577

          k = 0.5775 0.0665 0.0000 (  7562 PWs)   bands (ev):

   -15.3460 -15.3409 -15.3050 -15.2993  -3.8777  -3.8553  -3.4956  -3.4682
    -1.4542  -1.4468  -1.3577  -1.3497  -0.6325  -0.5500   0.0586   0.1688
     2.9543   2.9900   5.1594   5.2652   7.5726   7.8749   9.2245   9.8120
     9.9665  10.0764  10.0968  10.6257  10.7064  10.7478  11.6627  11.8579
    12.9762  13.0619  14.7790  15.1292  15.5100  15.5257  15.7385  16.0430
    17.0892  17.4367  17.8955  18.1183  18.6057  18.7017  19.8350  19.9594
    20.4631  21.0023  21.6647  21.7315  22.5731  22.7125  23.0933  23.1533
    23.8402  24.0457  24.0810  24.4344  25.0085  25.0897  25.1669  25.1981
    26.6126  26.7251  27.0286  28.4101  28.5602  28.6068

          k = 0.5775 0.0554 0.0000 (  7578 PWs)   bands (ev):

   -15.3477 -15.3426 -15.3066 -15.3010  -3.8890  -3.8667  -3.5059  -3.4785
    -1.4173  -1.4101  -1.3274  -1.3197  -0.6408  -0.5585   0.0561   0.1666
     2.9449   2.9810   5.1322   5.2410   7.5255   7.8261   9.2237   9.8054
     9.9538  10.0770  10.0891  10.6201  10.8366  10.8784  11.6581  11.8299
    12.9459  12.9907  14.7568  14.9899  15.5948  15.6051  15.7675  16.0779
    17.0691  17.5234  17.9405  18.1872  18.6089  18.6425  19.7632  19.9555
    20.4417  21.0067  21.6782  21.7741  22.5752  22.6838  23.0693  23.0987
    23.8968  24.0173  24.0575  24.4395  24.8691  24.9798  25.1583  25.2962
    26.5552  26.6278  27.1133  28.3023  28.5020  28.7044

          k = 0.5775 0.0443 0.0000 (  7590 PWs)   bands (ev):

   -15.3492 -15.3441 -15.3080 -15.3023  -3.8984  -3.8759  -3.5144  -3.4870
    -1.3862  -1.3793  -1.3021  -1.2947  -0.6479  -0.5659   0.0540   0.1647
     2.9370   2.9735   5.1092   5.2205   7.4864   7.7857   9.2228   9.7991
     9.9432  10.0772  10.0837  10.6089  10.9665  10.9998  11.6544  11.7998
    12.8346  13.0019  14.7380  14.8689  15.6699  15.6730  15.7920  16.1033
    17.0357  17.6220  17.9894  18.2395  18.5813  18.6209  19.7023  19.9524
    20.3973  21.0087  21.6319  21.9040  22.5695  22.6559  22.9922  23.1031
    23.9487  23.9925  24.0419  24.4556  24.6650  24.9567  25.1556  25.4063
    26.5067  26.5096  27.1899  28.1724  28.4871  28.8161

          k = 0.5775 0.0333 0.0000 (  7582 PWs)   bands (ev):

   -15.3503 -15.3452 -15.3091 -15.3034  -3.9056  -3.8832  -3.5210  -3.4935
    -1.3615  -1.3547  -1.2822  -1.2750  -0.6537  -0.5719   0.0523   0.1633
     2.9309   2.9677   5.0909   5.2042   7.4556   7.7538   9.2219   9.7938
     9.9348  10.0771  10.0803  10.5993  11.0833  11.1082  11.6516  11.7680
    12.7328  13.0105  14.7229  14.7697  15.7268  15.7349  15.8107  16.1199
    17.0043  17.7122  18.0404  18.2753  18.5210  18.6378  19.6534  19.9500
    20.3452  21.0090  21.5942  22.0397  22.5601  22.6262  22.9279  23.1067
    23.9722  23.9910  24.0348  24.4758  24.4839  24.9390  25.1572  25.5274
    26.3770  26.4685  27.2548  28.0587  28.4814  28.9320

          k = 0.5775 0.0222 0.0000 (  7584 PWs)   bands (ev):

   -15.3511 -15.3460 -15.3098 -15.3042  -3.9109  -3.8884  -3.5258  -3.4982
    -1.3435  -1.3369  -1.2678  -1.2608  -0.6581  -0.5763   0.0512   0.1622
     2.9264   2.9634   5.0775   5.1923   7.4334   7.7309   9.2212   9.7897
     9.9287  10.0762  10.0789  10.5922  11.1780  11.1978  11.6495  11.7367
    12.6484  13.0165  14.6948  14.7129  15.7687  15.7844  15.8224  16.1291
    16.9803  17.7837  18.0902  18.2973  18.4645  18.6555  19.6177  19.9483
    20.2982  21.0085  21.5663  22.1665  22.5504  22.5924  22.8800  23.1092
    23.9571  24.0215  24.0379  24.3336  24.4944  24.9265  25.1610  25.6580
    26.2361  26.4408  27.3044  27.9720  28.4785  29.0398

          k = 0.5775 0.0111 0.0000 (  7584 PWs)   bands (ev):

   -15.3516 -15.3465 -15.3103 -15.3046  -3.9140  -3.8915  -3.5286  -3.5011
    -1.3326  -1.3260  -1.2590  -1.2522  -0.6607  -0.5790   0.0504   0.1616
     2.9238   2.9609   5.0695   5.1851   7.4201   7.7171   9.2207   9.7871
     9.9250  10.0753  10.0786  10.5879  11.2413  11.2595  11.6483  11.7115
    12.5912  13.0200  14.6496  14.7058  15.7973  15.8159  15.8266  16.1330
    16.9655  17.8296  18.1311  18.3088  18.4196  18.6685  19.5959  19.9472
    20.2659  21.0079  21.5493  22.2669  22.5434  22.5564  22.8505  23.1108
    23.9479  24.0398  24.0519  24.2245  24.5072  24.9190  25.1647  25.7950
    26.0920  26.4241  27.3356  27.9179  28.4771  29.1014

          k = 0.5775 0.0000 0.0000 (  7582 PWs)   bands (ev):

   -15.3518 -15.3467 -15.3105 -15.3048  -3.9150  -3.8925  -3.5295  -3.5020
    -1.3289  -1.3224  -1.2561  -1.2493  -0.6616  -0.5799   0.0502   0.1614
     2.9229   2.9600   5.0668   5.1827   7.4156   7.7125   9.2206   9.7863
     9.9237  10.0749  10.0785  10.5864  11.2639  11.2820  11.6479  11.7014
    12.5707  13.0212  14.6341  14.7035  15.8098  15.8235  15.8286  16.1340
    16.9605  17.8454  18.1483  18.3124  18.4010  18.6733  19.5886  19.9469
    20.2545  21.0076  21.5436  22.3099  22.5359  22.5415  22.8406  23.1113
    23.9447  24.0464  24.0645  24.1783  24.5117  24.9165  25.1662  25.9109
    25.9736  26.4185  27.3463  27.8994  28.4767  29.1001

          k = 0.5583 0.0000 0.0000 (  7580 PWs)   bands (ev):

   -15.3535 -15.3483 -15.3120 -15.3063  -3.9098  -3.8874  -3.5238  -3.4963
    -1.3276  -1.3210  -1.2548  -1.2480  -0.6687  -0.5868   0.0477   0.1593
     2.9210   2.9582   5.0801   5.1971   7.4118   7.7104   9.2093   9.7623
     9.9216  10.0746  10.0952  10.5908  11.2664  11.2845  11.6501  11.6972
    12.5821  13.0315  14.6449  14.6980  15.8120  15.8183  15.8234  16.1412
    16.9701  17.8364  18.1503  18.3022  18.4011  18.6569  19.5979  19.9406
    20.2558  21.0160  21.5582  22.2934  22.5395  22.5464  22.8516  23.0509
    24.0088  24.0418  24.0748  24.1885  24.4535  24.9202  25.2319  25.8994
    25.9778  26.4152  27.3325  27.8898  28.4722  29.1018

          k = 0.5390 0.0000 0.0000 (  7574 PWs)   bands (ev):

   -15.3584 -15.3533 -15.3167 -15.3110  -3.8944  -3.8722  -3.5067  -3.4793
    -1.3234  -1.3169  -1.2509  -1.2441  -0.6898  -0.6070   0.0402   0.1529
     2.9155   2.9528   5.1199   5.2399   7.4001   7.7037   9.1759   9.7051
     9.9148  10.0654  10.1405  10.6041  11.2741  11.2921  11.6566  11.6856
    12.6141  13.0618  14.6752  14.6844  15.8024  15.8077  15.8184  16.1628
    16.9985  17.8094  18.1575  18.2726  18.4019  18.6082  19.6251  19.9224
    20.2597  21.0404  21.6006  22.2472  22.5499  22.5617  22.8840  22.9082
    24.0268  24.1026  24.1626  24.2188  24.3228  24.9311  25.3843  25.8657
    25.9894  26.4052  27.2906  27.8618  28.4570  29.1072

          k = 0.5198 0.0000 0.0000 (  7563 PWs)   bands (ev):

   -15.3666 -15.3614 -15.3243 -15.3186  -3.8689  -3.8469  -3.4783  -3.4509
    -1.3166  -1.3101  -1.2444  -1.2376  -0.7239  -0.6399   0.0278   0.1425
     2.9064   2.9439   5.1850   5.3102   7.3794   7.6915   9.1224   9.6342
     9.9017  10.0517  10.1933  10.6276  11.2867  11.3047  11.6656  11.6716
    12.6603  13.1112  14.6643  14.7277  15.7756  15.7814  15.8282  16.1992
    17.0442  17.7647  18.1732  18.2261  18.4039  18.5295  19.6681  19.8939
    20.2652  21.0782  21.6664  22.1798  22.5671  22.5889  22.7346  22.9362
    24.0004  24.1378  24.1714  24.2676  24.3547  24.9483  25.5705  25.8130
    26.0061  26.3876  27.2196  27.8169  28.4264  29.1176

          k = 0.5005 0.0000 0.0000 (  7561 PWs)   bands (ev):

   -15.3779 -15.3726 -15.3349 -15.3291  -3.8335  -3.8118  -3.4388  -3.4115
    -1.3071  -1.3006  -1.2354  -1.2286  -0.7700  -0.6842   0.0107   0.1280
     2.8935   2.9317   5.2739   5.4063   7.3482   7.6722   9.0518   9.5609
     9.8804  10.0357  10.2456  10.6622  11.3041  11.3220  11.6541  11.6828
    12.7114  13.1776  14.6515  14.7947  15.7375  15.7440  15.8405  16.2508
    17.1054  17.7027  18.1663  18.2022  18.4072  18.4247  19.7236  19.8579
    20.2709  21.1258  21.7491  22.1012  22.5567  22.5913  22.6308  23.0051
    23.9610  24.0214  24.1674  24.3325  24.5581  24.9705  25.7457  25.7658
    26.0248  26.3611  27.1191  27.7558  28.3750  29.0976

          k = 0.4813 0.0000 0.0000 (  7563 PWs)   bands (ev):

   -15.3921 -15.3868 -15.3482 -15.3424  -3.7886  -3.7674  -3.3884  -3.3612
    -1.2950  -1.2886  -1.2240  -1.2172  -0.8264  -0.7385  -0.0109   0.1098
     2.8768   2.9165   5.3844   5.5263   7.3044   7.6437   8.9678   9.4912
     9.8480  10.0206  10.2948  10.7084  11.3261  11.3438  11.6458  11.7011
    12.7560  13.2581  14.6551  14.8748  15.6876  15.6954  15.8549  16.3180
    17.1802  17.6240  18.0971  18.2497  18.2946  18.4164  19.7865  19.8175
    20.2751  21.1787  21.8400  22.0206  22.3885  22.6223  22.6908  23.0867
    23.8815  23.9066  24.1798  24.4098  24.7593  24.9961  25.6702  25.9580
    26.0428  26.3232  26.9907  27.6762  28.3005  28.8341

          k = 0.4620 0.0000 0.0000 (  7587 PWs)   bands (ev):

   -15.4091 -15.4037 -15.3642 -15.3583  -3.7346  -3.7140  -3.3274  -3.3003
    -1.2805  -1.2742  -1.2102  -1.2035  -0.8912  -0.8009  -0.0365   0.0881
     2.8563   2.8985   5.5140   5.6679   7.2462   7.6038   8.8748   9.4290
     9.8023  10.0098  10.3408  10.7658  11.3524  11.3699  11.6496  11.7228
    12.7835  13.3488  14.6858  14.9645  15.6255  15.6351  15.8724  16.4011
    17.2672  17.5300  18.0229  18.1472  18.3200  18.4293  19.7763  19.8502
    20.2759  21.2319  21.9300  21.9450  22.2395  22.6597  22.7728  23.1758
    23.7561  23.8346  24.1659  24.4941  24.9495  25.0235  25.5938  26.0587
    26.1391  26.2700  26.8399  27.5709  28.2063  28.5454

          k = 0.4428 0.0000 0.0000 (  7603 PWs)   bands (ev):

   -15.4286 -15.4231 -15.3825 -15.3765  -3.6720  -3.6523  -3.2561  -3.2292
    -1.2636  -1.2574  -1.1942  -1.1876  -0.9625  -0.8697  -0.0659   0.0633
     2.8317   2.8776   5.6595   5.8286   7.1719   7.5500   8.7772   9.3769
     9.7417  10.0069  10.3851  10.8331  11.3826  11.3998  11.6708  11.7477
    12.7872  13.4451  14.7512  15.0606  15.5510  15.5632  15.8958  16.5005
    17.3654  17.4224  17.9472  17.9855  18.4162  18.4489  19.7379  19.9067
    20.2710  21.2797  21.8788  22.0115  22.1184  22.7031  22.8787  23.2663
    23.6469  23.7423  24.1203  24.5779  25.0510  25.1212  25.5250  26.0734
    26.1963  26.3022  26.6764  27.4272  28.1048  28.2436

          k = 0.4235 0.0000 0.0000 (  7591 PWs)   bands (ev):

   -15.4504 -15.4448 -15.4029 -15.3968  -3.6017  -3.5829  -3.1749  -3.1482
    -1.2446  -1.2384  -1.1761  -1.1696  -1.0383  -0.9427  -0.0986   0.0356
     2.8030   2.8540   5.8176   6.0060   7.0805   7.4803   8.6797   9.3358
     9.6661  10.0152  10.4300  10.9077  11.4161  11.4332  11.7127  11.7757
    12.7671  13.5412  14.8534  15.1599  15.4645  15.4796  15.9297  16.6162
    17.3033  17.4744  17.8141  17.8737  18.4765  18.5394  19.7054  19.9470
    20.2583  21.3153  21.8245  22.0332  22.0804  22.7516  23.0072  23.3526
    23.5550  23.6275  24.0415  24.6501  25.0770  25.2669  25.4723  26.0887
    26.0974  26.4417  26.5142  27.2331  27.9363  28.0123

          k = 0.4043 0.0000 0.0000 (  7613 PWs)   bands (ev):

   -15.4741 -15.4684 -15.4252 -15.4190  -3.5244  -3.5066  -3.0843  -3.0580
    -1.2235  -1.2174  -1.1561  -1.1497  -1.1166  -1.0181  -0.1342   0.0053
     2.7699   2.8275   5.9839   6.1972   6.9720   7.3933   8.5873   9.3053
     9.5768  10.0371  10.4780  10.9852  11.4525  11.4693  11.7770  11.8066
    12.7296  13.6309  14.9889  15.2596  15.3663  15.3849  15.9803  16.7479
    17.1756  17.5939  17.6370  17.8051  18.5133  18.6896  19.6816  19.9630
    20.2359  21.3312  21.7827  21.9904  22.1359  22.8043  23.1525  23.4305
    23.4804  23.4888  23.9316  24.6960  25.0999  25.3737  25.4427  25.9752
    26.1077  26.3713  26.5524  26.9871  27.6282  27.9388

          k = 0.3850 0.0000 0.0000 (  7607 PWs)   bands (ev):

   -15.4996 -15.4937 -15.4491 -15.4428  -3.4411  -3.4246  -2.9848  -2.9588
    -1.2006  -1.1952  -1.1946  -1.1343  -1.1280  -1.0938  -0.1722  -0.0269
     2.7324   2.7980   6.1531   6.3992   6.8471   7.2886   8.5056   9.2839
     9.4771  10.0744  10.5319  11.0595  11.4911  11.5076  11.8403  11.8645
    12.6868  13.7084  15.1509  15.2575  15.2797  15.3571  16.0542  16.8951
    17.0421  17.4582  17.7236  17.7439  18.5601  18.8651  19.6687  19.9502
    20.2022  21.3193  21.7520  21.9928  22.1797  22.8603  23.3058  23.3260
    23.4227  23.4995  23.7955  24.6986  25.1181  25.4048  25.4385  25.8604
    26.1336  26.2659  26.6301  26.7013  27.3225  27.8850

          k = 0.3658 0.0000 0.0000 (  7623 PWs)   bands (ev):

   -15.5264 -15.5204 -15.4743 -15.4679  -3.3532  -3.3380  -2.8771  -2.8515
    -1.2722  -1.1760  -1.1701  -1.1679  -1.1111  -1.1049  -0.2121  -0.0609
     2.6903   2.7655   6.3186   6.6084   6.7073   7.1665   8.4414   9.2692
     9.3713  10.1275  10.5947  11.1217  11.5311  11.5474  11.8775  11.9737
    12.6538  13.7689  15.1395  15.1652  15.3315  15.4500  16.1571  16.9062
    17.0570  17.2813  17.6920  17.8627  18.6177  19.0638  19.6680  19.9088
    20.1565  21.2717  21.7291  22.0375  22.2140  22.9184  23.1402  23.3810
    23.4554  23.5628  23.6407  24.6454  25.1302  25.2913  25.4540  25.8232
    26.1688  26.2085  26.3953  26.6715  27.0239  27.8472

          k = 0.3465 0.0000 0.0000 (  7629 PWs)   bands (ev):

   -15.5543 -15.5481 -15.5005 -15.4940  -3.2621  -3.2483  -2.7616  -2.7366
    -1.3453  -1.2382  -1.1500  -1.1443  -1.0865  -1.0804  -0.2534  -0.0961
     2.6434   2.7297   6.4714   6.5543   6.8202   7.0282   8.4033   9.2582
     9.2658  10.1961  10.6688  11.1616  11.5717  11.5877  11.9180  12.1039
    12.6469  13.8100  15.0137  15.0427  15.5227  15.5373  16.2923  16.7711
    17.1096  17.2325  17.6510  18.0092  18.6862  19.2829  19.6806  19.8439
    20.1000  21.1830  21.7086  22.1170  22.2401  22.9336  22.9780  23.3544
    23.4769  23.5858  23.6257  24.5355  25.0475  25.1344  25.4720  25.8581
    26.0934  26.1922  26.2150  26.6747  26.7426  27.4454

          k = 0.3273 0.0000 0.0000 (  7637 PWs)   bands (ev):

   -15.5828 -15.5766 -15.5274 -15.5207  -3.1699  -3.1575  -2.6392  -2.6148
    -1.4121  -1.3025  -1.1229  -1.1173  -1.0608  -1.0549  -0.2955  -0.1321
     2.5917   2.6904   6.3903   6.6017   6.8755   7.0281   8.4011   9.1674
     9.2495  10.2790  10.7561  11.1700  11.6120  11.6278  11.9625  12.2532
    12.6800  13.8317  14.8820  14.9141  15.6138  15.7211  16.4607  16.6401
    16.9462  17.4199  17.6221  18.1580  18.7658  19.5195  19.7068  19.7626
    20.0371  21.0516  21.6823  22.2214  22.2585  22.7093  23.0381  23.3164
    23.3414  23.6753  23.6915  24.3779  24.7348  25.1292  25.4608  25.8256
    25.9178  26.1905  26.2728  26.4992  26.6392  27.0711

          k = 0.3080 0.0000 0.0000 (  7637 PWs)   bands (ev):

   -15.6118 -15.6054 -15.5546 -15.5478  -3.0789  -3.0676  -2.5106  -2.4869
    -1.4700  -1.3583  -1.0949  -1.0895  -1.0344  -1.0285  -0.3381  -0.1686
     2.5352   2.6476   6.2174   6.6988   6.7109   7.2225   8.4444   9.0882
     9.2399  10.3744  10.8578  11.1437  11.6511  11.6666  12.0113  12.4202
    12.7602  13.8361  14.7463  14.7811  15.6815  15.9177  16.5164  16.6604
    16.7936  17.6057  17.6173  18.2996  18.8563  19.6724  19.7465  19.7702
    19.9779  20.8803  21.6392  22.2680  22.3403  22.4706  23.0982  23.1743
    23.3403  23.6970  23.7563  24.1828  24.3846  25.1130  25.3821  25.6284
    25.9870  26.1568  26.3206  26.3421  26.5660  26.7758

          k = 0.2888 0.0000 0.0000 (  7639 PWs)   bands (ev):

   -15.6408 -15.6342 -15.5819 -15.5750  -2.9922  -2.9815  -2.3767  -2.3538
    -1.5161  -1.4030  -1.0664  -1.0611  -1.0074  -1.0017  -0.3807  -0.2050
     2.4737   2.6010   6.0376   6.5358   6.7581   7.3896   8.5382   9.0430
     9.2285  10.4799  10.9744  11.0869  11.6879  11.7031  12.0653  12.6029
    12.8861  13.8266  14.6084  14.6455  15.7377  16.1089  16.4027  16.6544
    16.8879  17.6020  17.8213  18.4168  18.9575  19.5801  19.7992  19.9409
    20.0312  20.6751  21.5666  22.2211  22.2656  22.4624  23.0663  23.1566
    23.3495  23.6302  23.8076  23.9570  24.0156  25.0840  25.2302  25.5316
    26.0367  26.0647  26.2044  26.4223  26.4581  26.6000

          k = 0.2695 0.0000 0.0000 (  7641 PWs)   bands (ev):

   -15.6695 -15.6629 -15.6090 -15.6019  -2.9130  -2.9021  -2.2383  -2.2164
    -1.5468  -1.4337  -1.0375  -1.0324  -0.9802  -0.9746  -0.4227  -0.2411
     2.4075   2.5506   5.8530   6.3536   6.7796   7.5120   8.6806   9.0501
     9.2146  10.5927  11.0081  11.1055  11.7215  11.7365  12.1253  12.7995
    13.0516  13.8068  14.4704  14.5094  15.7815  16.2899  16.3016  16.5305
    17.1390  17.6101  18.0276  18.4859  19.0688  19.4925  19.8644  19.9528
    20.2975  20.4442  21.4552  21.9642  22.2445  22.5741  23.0045  23.2069
    23.3669  23.4870  23.6458  23.7094  23.8167  25.0409  25.0570  25.5372
    25.8486  26.1075  26.1523  26.3191  26.5129  26.5132

          k = 0.2503 0.0000 0.0000 (  7641 PWs)   bands (ev):

   -15.6977 -15.6909 -15.6355 -15.6283  -2.8450  -2.8329  -2.0965  -2.0759
    -1.5589  -1.4476  -1.0087  -1.0037  -0.9530  -0.9475  -0.4637  -0.2765
     2.3367   2.4965   5.6656   6.1665   6.7706   7.5761   8.8638   9.1240
     9.1982  10.7100  10.9164  11.2502  11.7511  11.7658  12.1924  13.0079
    13.2492  13.7801  14.3341  14.3745  15.8121  16.2154  16.4238  16.4550
    17.4090  17.6286  18.2292  18.4890  19.1896  19.4173  19.9410  20.0368
    20.1968  20.5617  21.3038  21.7033  22.1942  22.6429  22.9926  23.2057
    23.3098  23.3145  23.3902  23.4856  23.7434  24.9292  24.9824  25.6192
    25.6524  25.9968  26.1554  26.2522  26.4417  26.6121

          k = 0.2310 0.0000 0.0000 (  7641 PWs)   bands (ev):

   -15.7250 -15.7181 -15.6613 -15.6540  -2.7912  -2.7765  -1.9525  -1.9333
    -1.5497  -1.4424  -0.9803  -0.9754  -0.9261  -0.9208  -0.5034  -0.3108
     2.2616   2.4387   5.4771   5.9769   6.7399   7.5823   9.0773   9.1795
     9.2652  10.8198  10.8283  11.4071  11.7759  11.7903  12.2678  13.2257
    13.4724  13.7492  14.2010  14.2426  15.8291  16.1455  16.3355  16.5957
    17.6544  17.6930  18.4136  18.4318  19.3194  19.3661  19.9425  20.0280
    20.1955  20.8092  21.1193  21.4415  22.1065  22.5649  23.0084  23.0257
    23.1183  23.1638  23.4167  23.4353  23.5683  24.8726  24.9081  25.4680
    25.7472  25.8749  25.9733  26.3547  26.3661  26.7189

          k = 0.2118 0.0000 0.0000 (  7659 PWs)   bands (ev):

   -15.7512 -15.7442 -15.6860 -15.6786  -2.7536  -2.7346  -1.8077  -1.7900
    -1.5181  -1.4173  -0.9525  -0.9478  -0.9000  -0.8948  -0.5413  -0.3437
     2.1826   2.3775   5.2895   5.7871   6.6957   7.5444   9.1589   9.3107
     9.4602  10.7254  10.9442  11.5744  11.7954  11.8097  12.3526  13.4498
    13.7150  13.7171  14.0729  14.1154  15.8326  16.0932  16.2663  16.6990
    17.6836  17.9856  18.3441  18.5606  19.3567  19.4573  19.6923  20.1242
    20.4119  20.9123  21.0067  21.1817  22.0017  22.2923  22.6995  23.0744
    23.0951  23.1205  23.3158  23.4431  23.4807  24.8180  24.8477  25.2871
    25.7711  25.7801  25.8987  26.2571  26.4941  26.8316

          k = 0.1925 0.0000 0.0000 (  7645 PWs)   bands (ev):

   -15.7760 -15.7689 -15.7094 -15.7018  -2.7318  -2.7073  -1.6634  -1.6475
    -1.4652  -1.3730  -0.9258  -0.9212  -0.8748  -0.8697  -0.5771  -0.3749
     2.1003   2.3134   5.1050   5.5998   6.6439   7.4793   9.1373   9.5533
     9.6922  10.6406  11.0546  11.7499  11.8095  11.8238  12.4474  13.6759
    13.6829  13.9512  13.9752  13.9944  15.8232  16.0588  16.2163  16.7455
    17.7093  18.2654  18.2808  18.6473  19.4076  19.4581  19.6023  20.2282
    20.6628  20.6928  20.9268  21.0834  21.9589  21.9608  22.3695  23.0219
    23.0531  23.1885  23.1923  23.4653  23.5396  24.7133  24.7894  25.0935
    25.5836  25.7262  26.0578  26.1694  26.6359  26.9486

          k = 0.1733 0.0000 0.0000 (  7637 PWs)   bands (ev):

   -15.7992 -15.7920 -15.7312 -15.7236  -2.7236  -2.6929  -1.5215  -1.5075
    -1.3945  -1.3123  -0.9004  -0.8959  -0.8509  -0.8458  -0.6104  -0.4041
     2.0156   2.2471   4.9255   5.4173   6.5891   7.4005   9.1153   9.7899
     9.9472  10.5776  11.1564  11.8182  11.8326  11.9311  12.5525  13.6493
    13.8372  13.8809  13.8992  14.2465  15.8030  16.0421  16.1850  16.7160
    17.7219  18.2318  18.5696  18.6721  19.2549  19.5127  19.7532  20.3382
    20.4691  20.6796  20.9195  20.9941  21.6335  22.0447  22.0499  22.7105
    23.0934  23.2668  23.3105  23.4784  23.5945  24.5959  24.6629  24.8790
    25.3922  25.7596  26.1125  26.2110  26.7893  27.0679

          k = 0.1540 0.0000 0.0000 (  7649 PWs)   bands (ev):

   -15.8206 -15.8132 -15.7514 -15.7437  -2.7257  -2.6887  -1.3838  -1.3719
    -1.3108  -1.2395  -0.8767  -0.8723  -0.8285  -0.8236  -0.6410  -0.4312
     1.9295   2.1794   4.7533   5.2423   6.5344   7.3172   9.0936   9.9887
    10.2154  10.5651  11.2476  11.8221  11.8368  12.1151  12.6665  13.6169
    13.7321  13.7761  14.1104  14.5255  15.7768  16.0418  16.1712  16.6065
    17.7088  18.2592  18.6575  18.8397  19.0995  19.6368  19.9084  20.2475
    20.4427  20.4529  20.8138  21.1108  21.3396  21.8080  22.2000  22.3950
    23.1917  23.3431  23.4442  23.4768  23.6305  24.4689  24.4815  24.6557
    25.2150  25.8519  26.0956  26.3422  26.9514  27.1874

          k = 0.1348 0.0000 0.0000 (  7627 PWs)   bands (ev):

   -15.8399 -15.8324 -15.7696 -15.7618  -2.7345  -2.6918  -1.2525  -1.2431
    -1.2191  -1.1591  -0.8549  -0.8507  -0.8080  -0.8032  -0.6686  -0.4558
     1.8436   2.1118   4.5911   5.0775   6.4822   7.2354   9.0729  10.0950
    10.4890  10.6548  11.3269  11.8218  11.8369  12.2987  12.7869  13.5853
    13.6370  13.6812  14.2968  14.8070  15.7544  16.0561  16.1728  16.4346
    17.6589  18.3399  18.6254  19.0063  19.0697  19.7365  20.0338  20.0660
    20.2201  20.5688  20.6306  21.0532  21.1047  21.8229  22.0832  22.3598
    23.3466  23.4147  23.4541  23.5892  23.6228  24.2733  24.3360  24.4581
    25.0607  25.9741  26.1169  26.4279  27.1184  27.3044

          k = 0.1155 0.0000 0.0000 (  7625 PWs)   bands (ev):

   -15.8570 -15.8494 -15.7857 -15.7778  -2.7469  -2.6995  -1.1311  -1.1268
    -1.1203  -1.0761  -0.8354  -0.8313  -0.7897  -0.7850  -0.6929  -0.4780
     1.7598   2.0457   4.4414   4.9259   6.4342   7.1591   9.0537  10.1076
    10.7614  10.8434  11.3940  11.8183  11.8341  12.4784  12.9100  13.5527
    13.5542  13.5970  14.4398  15.0837  15.7526  16.0821  16.1870  16.2279
    17.5699  18.4560  18.5880  18.9794  19.2249  19.7698  19.8331  20.0142
    20.2231  20.5068  20.6840  20.7924  20.9600  21.7804  22.0430  22.5006
    23.4068  23.4812  23.5394  23.5506  23.7406  24.0597  24.2017  24.3326
    24.9363  26.1064  26.1702  26.4363  27.2857  27.3145

          k = 0.0963 0.0000 0.0000 (  7629 PWs)   bands (ev):

   -15.8717 -15.8641 -15.7996 -15.7917  -2.7607  -2.7092  -1.0348  -1.0194
    -1.0131  -0.9949  -0.8184  -0.8144  -0.7737  -0.7691  -0.7138  -0.4977
     1.6804   1.9832   4.3072   4.7903   6.3917   7.0911   9.0365  10.0819
    11.0254  11.0701  11.4490  11.8129  11.8292  12.6501  13.0303  13.4800
    13.5228  13.5245  14.5195  15.3400  15.7912  16.0184  16.1163  16.2104
    17.4509  18.5516  18.5910  19.0092  19.2719  19.6501  19.7180  19.8291
    20.3761  20.4853  20.4900  20.7948  20.9192  21.4915  22.2989  22.6231
    23.3351  23.3833  23.5427  23.7879  23.8562  23.8937  24.0714  24.2926
    24.8449  26.2364  26.2479  26.3488  27.2620  27.2728

          k = 0.0770 0.0000 0.0000 (  7629 PWs)   bands (ev):

   -15.8839 -15.8763 -15.8111 -15.8031  -2.7739  -2.7193  -0.9501  -0.9258
    -0.9210  -0.9157  -0.8041  -0.8002  -0.7604  -0.7558  -0.7310  -0.5148
     1.6083   1.9266   4.1916   4.6738   6.3557   7.0334   9.0219  10.0484
    11.2722  11.2969  11.4928  11.8065  11.8234  12.8097  13.1419  13.4196
    13.4642  13.4899  14.5292  15.5136  15.8742  15.8846  16.1545  16.2389
    17.3146  18.5194  18.7328  19.0794  19.2232  19.4898  19.6078  19.6687
    20.1921  20.5199  20.5565  20.8969  20.9529  21.2219  22.5284  22.7341
    23.2090  23.2459  23.5986  23.6741  23.9509  24.0398  24.0422  24.3057
    24.7842  26.1846  26.3416  26.3556  27.0601  27.2060

          k = 0.0578 0.0000 0.0000 (  7623 PWs)   bands (ev):

   -15.8935 -15.8858 -15.8202 -15.8122  -2.7854  -2.7284  -0.8776  -0.8599
    -0.8444  -0.8385  -0.7928  -0.7890  -0.7498  -0.7452  -0.7441  -0.5293
     1.5468   1.8788   4.0975   4.5795   6.3270   6.9872   9.0102  10.0178
    11.4900  11.5031  11.5258  11.8003  11.8178  12.9533  13.2382  13.3721
    13.4167  13.4535  14.4858  15.4596  15.9583  16.0093  16.1917  16.2680
    17.1720  18.4931  18.8725  19.1319  19.1731  19.3575  19.4840  19.5375
    19.9171  20.6476  20.6660  20.9794  20.9852  21.0160  22.6710  22.8365
    23.0966  23.1513  23.5227  23.6473  23.8467  24.1778  24.2875  24.3405
    24.7477  25.9847  26.4403  26.4574  26.8735  27.1205

          k = 0.0385 0.0000 0.0000 (  7621 PWs)   bands (ev):

   -15.9004 -15.8927 -15.8267 -15.8187  -2.7941  -2.7355  -0.8218  -0.8114
    -0.7882  -0.7846  -0.7808  -0.7791  -0.7515  -0.7420  -0.7375  -0.5412
     1.4994   1.8421   4.0279   4.5098   6.3061   6.9536   9.0016   9.9943
    11.5489  11.6619  11.6733  11.7952  11.8131  13.0770  13.3127  13.3379
    13.3825  13.4117  14.4205  15.3234  16.1150  16.1535  16.2231  16.2930
    17.0328  18.4738  19.0046  19.0432  19.2582  19.2717  19.3784  19.4398
    19.6775  20.7501  20.7679  20.7770  21.0540  21.0770  22.6656  22.9256
    23.0670  23.1180  23.4092  23.6858  23.7657  24.2898  24.3783  24.5105
    24.7280  25.7890  26.5299  26.5359  26.7246  27.0147

          k = 0.0193 0.0000 0.0000 (  7619 PWs)   bands (ev):

   -15.9046 -15.8969 -15.8307 -15.8226  -2.7996  -2.7400  -0.7865  -0.7810
    -0.7797  -0.7759  -0.7675  -0.7427  -0.7405  -0.7374  -0.7329  -0.5496
     1.4694   1.8190   3.9851   4.4671   6.2934   6.9332   8.9963   9.9797
    11.5626  11.7724  11.7883  11.7918  11.8100  13.1759  13.3172  13.3597
    13.3619  13.3645  14.3650  15.2221  16.2306  16.2441  16.2804  16.3099
    16.9146  18.4620  18.9818  19.1254  19.1965  19.3089  19.3512  19.3793
    19.4859  20.6359  20.8176  20.8367  21.0981  21.1190  22.6062  22.9889
    23.0082  23.1846  23.3389  23.7108  23.7140  24.3650  24.4072  24.6786
    24.7189  25.6366  26.5857  26.5933  26.6270  26.9255

          k = 0.0000 0.0000 0.0000 (  7603 PWs)   bands (ev):

   -15.9060 -15.8983 -15.8320 -15.8239  -2.8015  -2.7415  -0.7780  -0.7743
    -0.7742  -0.7706  -0.7671  -0.7358  -0.7323  -0.7313  -0.7278  -0.5528
     1.4591   1.8112   3.9707   4.4527   6.2891   6.9263   8.9946   9.9748
    11.5671  11.7906  11.8089  11.8109  11.8291  13.2262  13.3103  13.3316
    13.3550  13.3761  14.3434  15.1856  16.2515  16.2725  16.3159  16.3371
    16.8617  18.4580  18.9602  19.1756  19.1997  19.2848  19.3589  19.3829
    19.3866  20.5838  20.8412  20.8608  21.1133  21.1338  22.5801  22.9871
    23.0122  23.2125  23.3151  23.6962  23.7195  24.3917  24.4181  24.7163
    24.7453  25.5754  26.5927  26.6028  26.6163  26.8905

     Writing all to output data dir ./work/Al2O2.save/
 
     init_run     :      0.19s CPU      0.22s WALL (       1 calls)
     electrons    :    187.47s CPU    232.44s WALL (       1 calls)

     Called by init_run:
     wfcinit      :      0.00s CPU      0.00s WALL (       1 calls)
     potinit      :      0.08s CPU      0.09s WALL (       1 calls)
     hinit0       :      0.07s CPU      0.08s WALL (       1 calls)

     Called by electrons:
     c_bands      :    187.47s CPU    232.44s WALL (       1 calls)
     v_of_rho     :      0.00s CPU      0.01s WALL (       1 calls)
     newd         :      0.02s CPU      0.03s WALL (       1 calls)
     PAW_pot      :      0.07s CPU      0.08s WALL (       1 calls)

     Called by c_bands:
     init_us_2    :      0.03s CPU      0.04s WALL (      91 calls)
     init_us_2:cp :      0.03s CPU      0.04s WALL (      91 calls)
     cegterg      :    183.68s CPU    227.34s WALL (     341 calls)

     Called by *egterg:
     cdiaghg      :     31.30s CPU     32.08s WALL (    6221 calls)
     h_psi        :     94.73s CPU    135.86s WALL (    6562 calls)
     s_psi        :      6.81s CPU      7.12s WALL (    6562 calls)
     g_psi        :      0.30s CPU      0.31s WALL (    6130 calls)

     Called by h_psi:
     h_psi:calbec :      7.30s CPU      9.59s WALL (    6562 calls)
     vloc_psi     :     77.69s CPU    115.60s WALL (    6562 calls)
     add_vuspsi   :      9.11s CPU     10.01s WALL (    6562 calls)

     General routines
     calbec       :      7.29s CPU      9.57s WALL (    6562 calls)
     fft          :      0.00s CPU      0.00s WALL (      12 calls)
     fftw         :     74.51s CPU    111.03s WALL (  446230 calls)
     davcio       :      0.05s CPU      0.06s WALL (     182 calls)
 
     Parallel routines
 
     PWSCF        :   3m 8.64s CPU   3m54.80s WALL

 
   This run was terminated on:  12:37:19  17Jun2023            

=------------------------------------------------------------------------------=
   JOB DONE.
=------------------------------------------------------------------------------=
