
     Program BANDS v.7.0 starts on 16Jun2023 at 14:57:20 

     This program is part of the open-source Quantum ESPRESSO suite
     for quantum simulation of materials; please cite
         "P. Giannozzi et al., J. Phys.:Condens. Matter 21 395502 (2009);
         "P. Giannozzi et al., J. Phys.:Condens. Matter 29 465901 (2017);
         "P. Giannozzi et al., J. Chem. Phys. 152 154105 (2020);
          URL http://www.quantum-espresso.org", 
     in publications or presentations arising from this work. More details at
     http://www.quantum-espresso.org/quote

     Parallel version (MPI), running on    22 processors

     MPI processes distributed on     1 nodes
     R & G space division:  proc/nbgrp/npool/nimage =      22
     7717 MiB available memory on the printing compute node when the environment starts
 

     Reading xml data from directory:

     ./work/Al2S2.save/
     Message from routine volume:
     axis vectors are left-handed
     file Al.pbe-n-kjpaw_psl.1.0.0.UPF: wavefunction(s)  3S 3P renormalized
     file S.pbe-n-kjpaw_psl.1.0.0.UPF: wavefunction(s)  3S 3P renormalized

     IMPORTANT: XC functional enforced from input :
     Exchange-correlation= PBE
                           (   1   4   3   4   0   0   0)
     Any further DFT definition will be discarded
     Please, verify this is what you really want

 
     Parallelization info
     --------------------
     sticks:   dense  smooth     PW     G-vecs:    dense   smooth      PW
     Min          34      34      9                 5348     5348     817
     Max          36      36     10                 5359     5359     858
     Sum         757     757    215               117733   117733   18403
 
     Using Slab Decomposition
 

     negative rho (up, down):  1.711E-04 0.000E+00
     Reading collected, re-writing distributed wavefunctions
     high-symmetry point:  0.0000 0.0000 0.0000   x coordinate   0.0000
     high-symmetry point:  0.5777 0.3320 0.0000   x coordinate   0.6663
     high-symmetry point:  0.5777 0.0000 0.0000   x coordinate   0.9982
     high-symmetry point:  0.0000 0.0000 0.0000   x coordinate   1.5759

     Plottable bands (eV) written to file Al2S2.bands.gnu
     Bands written to file Al2S2.bands

 **************************************************************************

                    xk=(   0.00000,   0.00000,   0.00000  )

     point group C_s (m)    
     there are  2 classes
     the character table:

       E     s    
A'     1.00  1.00
A''    1.00 -1.00

     the symmetry operations in each class and the name of the first element:

     E        1
                                                                 
     s        2
                                                                 

     Band symmetry, C_s (m)     point group:

     e(  1 -  1) =    -16.16213  eV     1   --> A'             
     e(  2 -  2) =    -16.05228  eV     1   --> A'             
     e(  3 -  3) =     -8.20105  eV     1   --> A'             
     e(  4 -  4) =     -6.13315  eV     1   --> A'             
     e(  5 -  5) =     -4.16449  eV     1   --> A''            
     e(  6 -  6) =     -4.15047  eV     1   --> A'             
     e(  7 -  7) =     -4.11359  eV     1   --> A''            
     e(  8 -  8) =     -4.09979  eV     1   --> A'             
     e(  9 -  9) =     -3.18407  eV     1   --> A'             
     e( 10 - 10) =      0.48996  eV     1   --> A'             
     e( 11 - 11) =      1.24009  eV     1   --> A'             
     e( 12 - 12) =      2.66605  eV     1   --> A''            
     e( 13 - 13) =      2.68571  eV     1   --> A'             
     e( 14 - 14) =      2.69229  eV     1   --> A'             
     e( 15 - 15) =      2.77698  eV     1   --> A'             
     e( 16 - 16) =      3.31751  eV     1   --> A'             
     e( 17 - 17) =      3.44489  eV     1   --> A''            
     e( 18 - 18) =      3.47258  eV     1   --> A'             
     e( 19 - 19) =      3.64036  eV     1   --> A'             
     e( 20 - 20) =      4.37077  eV     1   --> A'             

 **************************************************************************

 **************************************************************************

                    xk=(   0.01926,   0.01107,   0.00000  )

     point group C_1 (1)    
     there are  1 classes
     the character table:

       E    
A      1.00

     the symmetry operations in each class and the name of the first element:

     E        1
                                                                 

     Band symmetry, C_1 (1)     point group:

     e(  1 -  1) =    -16.15879  eV     1   --> A              
     e(  2 -  2) =    -16.04907  eV     1   --> A              
     e(  3 -  3) =     -8.19755  eV     1   --> A              
     e(  4 -  4) =     -6.13060  eV     1   --> A              
     e(  5 -  5) =     -4.18343  eV     1   --> A              
     e(  6 -  6) =     -4.16394  eV     1   --> A              
     e(  7 -  7) =     -4.13064  eV     1   --> A              
     e(  8 -  8) =     -4.11265  eV     1   --> A              
     e(  9 -  9) =     -3.17764  eV     1   --> A              
     e( 10 - 10) =      0.51281  eV     1   --> A              
     e( 11 - 11) =      1.26283  eV     1   --> A              
     e( 12 - 12) =      2.65057  eV     1   --> A              
     e( 13 - 13) =      2.68529  eV     1   --> A              
     e( 14 - 14) =      2.69135  eV     1   --> A              
     e( 15 - 15) =      2.79054  eV     1   --> A              
     e( 16 - 16) =      3.32370  eV     1   --> A              
     e( 17 - 17) =      3.44391  eV     1   --> A              
     e( 18 - 18) =      3.47130  eV     1   --> A              
     e( 19 - 19) =      3.64980  eV     1   --> A              
     e( 20 - 20) =      4.37011  eV     1   --> A              

 **************************************************************************

 **************************************************************************

                    xk=(   0.03851,   0.02213,   0.00000  )

     Band symmetry, C_1 (1)     point group:

     e(  1 -  1) =    -16.14881  eV     1   --> A              
     e(  2 -  2) =    -16.03946  eV     1   --> A              
     e(  3 -  3) =     -8.18711  eV     1   --> A              
     e(  4 -  4) =     -6.12307  eV     1   --> A              
     e(  5 -  5) =     -4.26030  eV     1   --> A              
     e(  6 -  6) =     -4.20214  eV     1   --> A              
     e(  7 -  7) =     -4.18071  eV     1   --> A              
     e(  8 -  8) =     -4.12875  eV     1   --> A              
     e(  9 -  9) =     -3.16034  eV     1   --> A              
     e( 10 - 10) =      0.57889  eV     1   --> A              
     e( 11 - 11) =      1.32862  eV     1   --> A              
     e( 12 - 12) =      2.57766  eV     1   --> A              
     e( 13 - 13) =      2.70771  eV     1   --> A              
     e( 14 - 14) =      2.70900  eV     1   --> A              
     e( 15 - 15) =      2.81598  eV     1   --> A              
     e( 16 - 16) =      3.34157  eV     1   --> A              
     e( 17 - 17) =      3.40926  eV     1   --> A              
     e( 18 - 18) =      3.50389  eV     1   --> A              
     e( 19 - 19) =      3.67490  eV     1   --> A              
     e( 20 - 20) =      4.36808  eV     1   --> A              

 **************************************************************************

 **************************************************************************

                    xk=(   0.05777,   0.03320,   0.00000  )

     Band symmetry, C_1 (1)     point group:

     e(  1 -  1) =    -16.13224  eV     1   --> A              
     e(  2 -  2) =    -16.02351  eV     1   --> A              
     e(  3 -  3) =     -8.16992  eV     1   --> A              
     e(  4 -  4) =     -6.11097  eV     1   --> A              
     e(  5 -  5) =     -4.38116  eV     1   --> A              
     e(  6 -  6) =     -4.31713  eV     1   --> A              
     e(  7 -  7) =     -4.20645  eV     1   --> A              
     e(  8 -  8) =     -4.15300  eV     1   --> A              
     e(  9 -  9) =     -3.13644  eV     1   --> A              
     e( 10 - 10) =      0.68155  eV     1   --> A              
     e( 11 - 11) =      1.43044  eV     1   --> A              
     e( 12 - 12) =      2.47168  eV     1   --> A              
     e( 13 - 13) =      2.73302  eV     1   --> A              
     e( 14 - 14) =      2.75284  eV     1   --> A              
     e( 15 - 15) =      2.84701  eV     1   --> A              
     e( 16 - 16) =      3.35462  eV     1   --> A              
     e( 17 - 17) =      3.36967  eV     1   --> A              
     e( 18 - 18) =      3.56172  eV     1   --> A              
     e( 19 - 19) =      3.71472  eV     1   --> A              
     e( 20 - 20) =      4.36473  eV     1   --> A              

 **************************************************************************

 **************************************************************************

                    xk=(   0.07703,   0.04426,   0.00000  )

     Band symmetry, C_1 (1)     point group:

     e(  1 -  1) =    -16.10919  eV     1   --> A              
     e(  2 -  2) =    -16.00134  eV     1   --> A              
     e(  3 -  3) =     -8.14632  eV     1   --> A              
     e(  4 -  4) =     -6.09507  eV     1   --> A              
     e(  5 -  5) =     -4.53479  eV     1   --> A              
     e(  6 -  6) =     -4.46598  eV     1   --> A              
     e(  7 -  7) =     -4.24246  eV     1   --> A              
     e(  8 -  8) =     -4.18684  eV     1   --> A              
     e(  9 -  9) =     -3.10980  eV     1   --> A              
     e( 10 - 10) =      0.81163  eV     1   --> A              
     e( 11 - 11) =      1.55754  eV     1   --> A              
     e( 12 - 12) =      2.34298  eV     1   --> A              
     e( 13 - 13) =      2.76366  eV     1   --> A              
     e( 14 - 14) =      2.81199  eV     1   --> A              
     e( 15 - 15) =      2.88697  eV     1   --> A              
     e( 16 - 16) =      3.29279  eV     1   --> A              
     e( 17 - 17) =      3.40699  eV     1   --> A              
     e( 18 - 18) =      3.62693  eV     1   --> A              
     e( 19 - 19) =      3.78016  eV     1   --> A              
     e( 20 - 20) =      4.36112  eV     1   --> A              

 **************************************************************************

 **************************************************************************

                    xk=(   0.09628,   0.05533,   0.00000  )

     Band symmetry, C_1 (1)     point group:

     e(  1 -  1) =    -16.07981  eV     1   --> A              
     e(  2 -  2) =    -15.97309  eV     1   --> A              
     e(  3 -  3) =     -8.11681  eV     1   --> A              
     e(  4 -  4) =     -6.07676  eV     1   --> A              
     e(  5 -  5) =     -4.71174  eV     1   --> A              
     e(  6 -  6) =     -4.63904  eV     1   --> A              
     e(  7 -  7) =     -4.28911  eV     1   --> A              
     e(  8 -  8) =     -4.23056  eV     1   --> A              
     e(  9 -  9) =     -3.08288  eV     1   --> A              
     e( 10 - 10) =      0.95939  eV     1   --> A              
     e( 11 - 11) =      1.69582  eV     1   --> A              
     e( 12 - 12) =      2.20108  eV     1   --> A              
     e( 13 - 13) =      2.79269  eV     1   --> A              
     e( 14 - 14) =      2.87467  eV     1   --> A              
     e( 15 - 15) =      2.94622  eV     1   --> A              
     e( 16 - 16) =      3.23528  eV     1   --> A              
     e( 17 - 17) =      3.45341  eV     1   --> A              
     e( 18 - 18) =      3.67760  eV     1   --> A              
     e( 19 - 19) =      3.88783  eV     1   --> A              
     e( 20 - 20) =      4.36137  eV     1   --> A              

 **************************************************************************

 **************************************************************************

                    xk=(   0.11554,   0.06639,   0.00000  )

     Band symmetry, C_1 (1)     point group:

     e(  1 -  1) =    -16.04430  eV     1   --> A              
     e(  2 -  2) =    -15.93896  eV     1   --> A              
     e(  3 -  3) =     -8.08212  eV     1   --> A              
     e(  4 -  4) =     -6.05852  eV     1   --> A              
     e(  5 -  5) =     -4.90383  eV     1   --> A              
     e(  6 -  6) =     -4.82627  eV     1   --> A              
     e(  7 -  7) =     -4.34666  eV     1   --> A              
     e(  8 -  8) =     -4.28434  eV     1   --> A              
     e(  9 -  9) =     -3.05695  eV     1   --> A              
     e( 10 - 10) =      1.11596  eV     1   --> A              
     e( 11 - 11) =      1.82080  eV     1   --> A              
     e( 12 - 12) =      2.06497  eV     1   --> A              
     e( 13 - 13) =      2.80806  eV     1   --> A              
     e( 14 - 14) =      2.92455  eV     1   --> A              
     e( 15 - 15) =      3.03513  eV     1   --> A              
     e( 16 - 16) =      3.19815  eV     1   --> A              
     e( 17 - 17) =      3.51000  eV     1   --> A              
     e( 18 - 18) =      3.70678  eV     1   --> A              
     e( 19 - 19) =      4.03143  eV     1   --> A              
     e( 20 - 20) =      4.37764  eV     1   --> A              

 **************************************************************************

 **************************************************************************

                    xk=(   0.13479,   0.07746,   0.00000  )

     Band symmetry, C_1 (1)     point group:

     e(  1 -  1) =    -16.00289  eV     1   --> A              
     e(  2 -  2) =    -15.89919  eV     1   --> A              
     e(  3 -  3) =     -8.04330  eV     1   --> A              
     e(  4 -  4) =     -6.04501  eV     1   --> A              
     e(  5 -  5) =     -5.10396  eV     1   --> A              
     e(  6 -  6) =     -5.01657  eV     1   --> A              
     e(  7 -  7) =     -4.41529  eV     1   --> A              
     e(  8 -  8) =     -4.34827  eV     1   --> A              
     e(  9 -  9) =     -3.03276  eV     1   --> A              
     e( 10 - 10) =      1.27414  eV     1   --> A              
     e( 11 - 11) =      1.82143  eV     1   --> A              
     e( 12 - 12) =      2.04073  eV     1   --> A              
     e( 13 - 13) =      2.79692  eV     1   --> A              
     e( 14 - 14) =      2.96139  eV     1   --> A              
     e( 15 - 15) =      3.14194  eV     1   --> A              
     e( 16 - 16) =      3.19783  eV     1   --> A              
     e( 17 - 17) =      3.57939  eV     1   --> A              
     e( 18 - 18) =      3.71393  eV     1   --> A              
     e( 19 - 19) =      4.17594  eV     1   --> A              
     e( 20 - 20) =      4.44389  eV     1   --> A              

 **************************************************************************

 **************************************************************************

                    xk=(   0.15405,   0.08852,   0.00000  )

     Band symmetry, C_1 (1)     point group:

     e(  1 -  1) =    -15.95589  eV     1   --> A              
     e(  2 -  2) =    -15.85407  eV     1   --> A              
     e(  3 -  3) =     -8.00177  eV     1   --> A              
     e(  4 -  4) =     -6.04523  eV     1   --> A              
     e(  5 -  5) =     -5.30575  eV     1   --> A              
     e(  6 -  6) =     -5.19570  eV     1   --> A              
     e(  7 -  7) =     -4.49507  eV     1   --> A              
     e(  8 -  8) =     -4.42237  eV     1   --> A              
     e(  9 -  9) =     -3.01084  eV     1   --> A              
     e( 10 - 10) =      1.42854  eV     1   --> A              
     e( 11 - 11) =      1.68515  eV     1   --> A              
     e( 12 - 12) =      2.13688  eV     1   --> A              
     e( 13 - 13) =      2.76028  eV     1   --> A              
     e( 14 - 14) =      2.98436  eV     1   --> A              
     e( 15 - 15) =      3.23611  eV     1   --> A              
     e( 16 - 16) =      3.25211  eV     1   --> A              
     e( 17 - 17) =      3.66480  eV     1   --> A              
     e( 18 - 18) =      3.69637  eV     1   --> A              
     e( 19 - 19) =      4.27620  eV     1   --> A              
     e( 20 - 20) =      4.60588  eV     1   --> A              

 **************************************************************************

 **************************************************************************

                    xk=(   0.17331,   0.09959,   0.00000  )

     Band symmetry, C_1 (1)     point group:

     e(  1 -  1) =    -15.90365  eV     1   --> A              
     e(  2 -  2) =    -15.80397  eV     1   --> A              
     e(  3 -  3) =     -7.95953  eV     1   --> A              
     e(  4 -  4) =     -6.07523  eV     1   --> A              
     e(  5 -  5) =     -5.50323  eV     1   --> A              
     e(  6 -  6) =     -5.34344  eV     1   --> A              
     e(  7 -  7) =     -4.58594  eV     1   --> A              
     e(  8 -  8) =     -4.50653  eV     1   --> A              
     e(  9 -  9) =     -2.99179  eV     1   --> A              
     e( 10 - 10) =      1.53171  eV     1   --> A              
     e( 11 - 11) =      1.57520  eV     1   --> A              
     e( 12 - 12) =      2.22909  eV     1   --> A              
     e( 13 - 13) =      2.71200  eV     1   --> A              
     e( 14 - 14) =      2.99186  eV     1   --> A              
     e( 15 - 15) =      3.29985  eV     1   --> A              
     e( 16 - 16) =      3.35919  eV     1   --> A              
     e( 17 - 17) =      3.65659  eV     1   --> A              
     e( 18 - 18) =      3.76607  eV     1   --> A              
     e( 19 - 19) =      4.35323  eV     1   --> A              
     e( 20 - 20) =      4.62154  eV     1   --> A              

 **************************************************************************

 **************************************************************************

                    xk=(   0.19256,   0.11065,   0.00000  )

     Band symmetry, C_1 (1)     point group:

     e(  1 -  1) =    -15.84658  eV     1   --> A              
     e(  2 -  2) =    -15.74929  eV     1   --> A              
     e(  3 -  3) =     -7.91929  eV     1   --> A              
     e(  4 -  4) =     -6.15415  eV     1   --> A              
     e(  5 -  5) =     -5.69044  eV     1   --> A              
     e(  6 -  6) =     -5.43732  eV     1   --> A              
     e(  7 -  7) =     -4.68764  eV     1   --> A              
     e(  8 -  8) =     -4.60050  eV     1   --> A              
     e(  9 -  9) =     -2.97633  eV     1   --> A              
     e( 10 - 10) =      1.37885  eV     1   --> A              
     e( 11 - 11) =      1.71079  eV     1   --> A              
     e( 12 - 12) =      2.29152  eV     1   --> A              
     e( 13 - 13) =      2.66454  eV     1   --> A              
     e( 14 - 14) =      2.99173  eV     1   --> A              
     e( 15 - 15) =      3.36942  eV     1   --> A              
     e( 16 - 16) =      3.46509  eV     1   --> A              
     e( 17 - 17) =      3.61100  eV     1   --> A              
     e( 18 - 18) =      3.87698  eV     1   --> A              
     e( 19 - 19) =      4.43783  eV     1   --> A              
     e( 20 - 20) =      4.51419  eV     1   --> A              

 **************************************************************************

 **************************************************************************

                    xk=(   0.21182,   0.12172,   0.00000  )

     Band symmetry, C_1 (1)     point group:

     e(  1 -  1) =    -15.78515  eV     1   --> A              
     e(  2 -  2) =    -15.69050  eV     1   --> A              
     e(  3 -  3) =     -7.88472  eV     1   --> A              
     e(  4 -  4) =     -6.28537  eV     1   --> A              
     e(  5 -  5) =     -5.86110  eV     1   --> A              
     e(  6 -  6) =     -5.47145  eV     1   --> A              
     e(  7 -  7) =     -4.79970  eV     1   --> A              
     e(  8 -  8) =     -4.70387  eV     1   --> A              
     e(  9 -  9) =     -2.96533  eV     1   --> A              
     e( 10 - 10) =      1.22995  eV     1   --> A              
     e( 11 - 11) =      1.83166  eV     1   --> A              
     e( 12 - 12) =      2.30936  eV     1   --> A              
     e( 13 - 13) =      2.62532  eV     1   --> A              
     e( 14 - 14) =      3.00300  eV     1   --> A              
     e( 15 - 15) =      3.40108  eV     1   --> A              
     e( 16 - 16) =      3.57425  eV     1   --> A              
     e( 17 - 17) =      3.60901  eV     1   --> A              
     e( 18 - 18) =      3.98602  eV     1   --> A              
     e( 19 - 19) =      4.41056  eV     1   --> A              
     e( 20 - 20) =      4.53740  eV     1   --> A              

 **************************************************************************

 **************************************************************************

                    xk=(   0.23108,   0.13278,   0.00000  )

     Band symmetry, C_1 (1)     point group:

     e(  1 -  1) =    -15.71992  eV     1   --> A              
     e(  2 -  2) =    -15.62814  eV     1   --> A              
     e(  3 -  3) =     -7.86042  eV     1   --> A              
     e(  4 -  4) =     -6.45121  eV     1   --> A              
     e(  5 -  5) =     -6.00845  eV     1   --> A              
     e(  6 -  6) =     -5.46150  eV     1   --> A              
     e(  7 -  7) =     -4.92147  eV     1   --> A              
     e(  8 -  8) =     -4.81604  eV     1   --> A              
     e(  9 -  9) =     -2.95974  eV     1   --> A              
     e( 10 - 10) =      1.08587  eV     1   --> A              
     e( 11 - 11) =      1.93300  eV     1   --> A              
     e( 12 - 12) =      2.27663  eV     1   --> A              
     e( 13 - 13) =      2.59801  eV     1   --> A              
     e( 14 - 14) =      3.04210  eV     1   --> A              
     e( 15 - 15) =      3.36848  eV     1   --> A              
     e( 16 - 16) =      3.68757  eV     1   --> A              
     e( 17 - 17) =      3.68805  eV     1   --> A              
     e( 18 - 18) =      4.06647  eV     1   --> A              
     e( 19 - 19) =      4.35026  eV     1   --> A              
     e( 20 - 20) =      4.65204  eV     1   --> A              

 **************************************************************************

 **************************************************************************

                    xk=(   0.25033,   0.14385,   0.00000  )

     Band symmetry, C_1 (1)     point group:

     e(  1 -  1) =    -15.65149  eV     1   --> A              
     e(  2 -  2) =    -15.56281  eV     1   --> A              
     e(  3 -  3) =     -7.85157  eV     1   --> A              
     e(  4 -  4) =     -6.63222  eV     1   --> A              
     e(  5 -  5) =     -6.12555  eV     1   --> A              
     e(  6 -  6) =     -5.42543  eV     1   --> A              
     e(  7 -  7) =     -5.05207  eV     1   --> A              
     e(  8 -  8) =     -4.93623  eV     1   --> A              
     e(  9 -  9) =     -2.96057  eV     1   --> A              
     e( 10 - 10) =      0.94647  eV     1   --> A              
     e( 11 - 11) =      2.00896  eV     1   --> A              
     e( 12 - 12) =      2.20337  eV     1   --> A              
     e( 13 - 13) =      2.58308  eV     1   --> A              
     e( 14 - 14) =      3.10923  eV     1   --> A              
     e( 15 - 15) =      3.32584  eV     1   --> A              
     e( 16 - 16) =      3.80027  eV     1   --> A              
     e( 17 - 17) =      3.80608  eV     1   --> A              
     e( 18 - 18) =      4.07859  eV     1   --> A              
     e( 19 - 19) =      4.39127  eV     1   --> A              
     e( 20 - 20) =      4.78051  eV     1   --> A              

 **************************************************************************

 **************************************************************************

                    xk=(   0.26959,   0.15491,   0.00000  )

     Band symmetry, C_1 (1)     point group:

     e(  1 -  1) =    -15.58056  eV     1   --> A              
     e(  2 -  2) =    -15.49520  eV     1   --> A              
     e(  3 -  3) =     -7.86276  eV     1   --> A              
     e(  4 -  4) =     -6.81606  eV     1   --> A              
     e(  5 -  5) =     -6.20639  eV     1   --> A              
     e(  6 -  6) =     -5.37452  eV     1   --> A              
     e(  7 -  7) =     -5.19044  eV     1   --> A              
     e(  8 -  8) =     -5.06340  eV     1   --> A              
     e(  9 -  9) =     -2.96878  eV     1   --> A              
     e( 10 - 10) =      0.81098  eV     1   --> A              
     e( 11 - 11) =      2.05427  eV     1   --> A              
     e( 12 - 12) =      2.10716  eV     1   --> A              
     e( 13 - 13) =      2.57791  eV     1   --> A              
     e( 14 - 14) =      3.19383  eV     1   --> A              
     e( 15 - 15) =      3.30874  eV     1   --> A              
     e( 16 - 16) =      3.88224  eV     1   --> A              
     e( 17 - 17) =      3.94297  eV     1   --> A              
     e( 18 - 18) =      4.08813  eV     1   --> A              
     e( 19 - 19) =      4.50637  eV     1   --> A              
     e( 20 - 20) =      4.92132  eV     1   --> A              

 **************************************************************************

 **************************************************************************

                    xk=(   0.28885,   0.16598,   0.00000  )

     Band symmetry, C_1 (1)     point group:

     e(  1 -  1) =    -15.50789  eV     1   --> A              
     e(  2 -  2) =    -15.42604  eV     1   --> A              
     e(  3 -  3) =     -7.89612  eV     1   --> A              
     e(  4 -  4) =     -6.99565  eV     1   --> A              
     e(  5 -  5) =     -6.24766  eV     1   --> A              
     e(  6 -  6) =     -5.33539  eV     1   --> A              
     e(  7 -  7) =     -5.31613  eV     1   --> A              
     e(  8 -  8) =     -5.19536  eV     1   --> A              
     e(  9 -  9) =     -2.98518  eV     1   --> A              
     e( 10 - 10) =      0.67835  eV     1   --> A              
     e( 11 - 11) =      2.00290  eV     1   --> A              
     e( 12 - 12) =      2.06679  eV     1   --> A              
     e( 13 - 13) =      2.57934  eV     1   --> A              
     e( 14 - 14) =      3.28391  eV     1   --> A              
     e( 15 - 15) =      3.33271  eV     1   --> A              
     e( 16 - 16) =      3.90465  eV     1   --> A              
     e( 17 - 17) =      4.09260  eV     1   --> A              
     e( 18 - 18) =      4.17905  eV     1   --> A              
     e( 19 - 19) =      4.64904  eV     1   --> A              
     e( 20 - 20) =      5.07212  eV     1   --> A              

 **************************************************************************

 **************************************************************************

                    xk=(   0.30810,   0.17704,   0.00000  )

     Band symmetry, C_1 (1)     point group:

     e(  1 -  1) =    -15.43434  eV     1   --> A              
     e(  2 -  2) =    -15.35615  eV     1   --> A              
     e(  3 -  3) =     -7.94999  eV     1   --> A              
     e(  4 -  4) =     -7.16664  eV     1   --> A              
     e(  5 -  5) =     -6.25016  eV     1   --> A              
     e(  6 -  6) =     -5.48560  eV     1   --> A              
     e(  7 -  7) =     -5.34089  eV     1   --> A              
     e(  8 -  8) =     -5.24405  eV     1   --> A              
     e(  9 -  9) =     -3.01032  eV     1   --> A              
     e( 10 - 10) =      0.54742  eV     1   --> A              
     e( 11 - 11) =      1.90080  eV     1   --> A              
     e( 12 - 12) =      2.04876  eV     1   --> A              
     e( 13 - 13) =      2.58778  eV     1   --> A              
     e( 14 - 14) =      3.36867  eV     1   --> A              
     e( 15 - 15) =      3.40019  eV     1   --> A              
     e( 16 - 16) =      3.92304  eV     1   --> A              
     e( 17 - 17) =      4.25245  eV     1   --> A              
     e( 18 - 18) =      4.31665  eV     1   --> A              
     e( 19 - 19) =      4.80515  eV     1   --> A              
     e( 20 - 20) =      5.22393  eV     1   --> A              

 **************************************************************************

 **************************************************************************

                    xk=(   0.32736,   0.18811,   0.00000  )

     Band symmetry, C_1 (1)     point group:

     e(  1 -  1) =    -15.36081  eV     1   --> A              
     e(  2 -  2) =    -15.28640  eV     1   --> A              
     e(  3 -  3) =     -8.01921  eV     1   --> A              
     e(  4 -  4) =     -7.32609  eV     1   --> A              
     e(  5 -  5) =     -6.21841  eV     1   --> A              
     e(  6 -  6) =     -5.63970  eV     1   --> A              
     e(  7 -  7) =     -5.48113  eV     1   --> A              
     e(  8 -  8) =     -5.17845  eV     1   --> A              
     e(  9 -  9) =     -3.04438  eV     1   --> A              
     e( 10 - 10) =      0.41717  eV     1   --> A              
     e( 11 - 11) =      1.80750  eV     1   --> A              
     e( 12 - 12) =      2.00684  eV     1   --> A              
     e( 13 - 13) =      2.60594  eV     1   --> A              
     e( 14 - 14) =      3.44130  eV     1   --> A              
     e( 15 - 15) =      3.50451  eV     1   --> A              
     e( 16 - 16) =      3.97554  eV     1   --> A              
     e( 17 - 17) =      4.41995  eV     1   --> A              
     e( 18 - 18) =      4.46922  eV     1   --> A              
     e( 19 - 19) =      4.96988  eV     1   --> A              
     e( 20 - 20) =      5.28591  eV     1   --> A              

 **************************************************************************

 **************************************************************************

                    xk=(   0.34661,   0.19917,   0.00000  )

     Band symmetry, C_1 (1)     point group:

     e(  1 -  1) =    -15.28827  eV     1   --> A              
     e(  2 -  2) =    -15.21771  eV     1   --> A              
     e(  3 -  3) =     -8.09695  eV     1   --> A              
     e(  4 -  4) =     -7.47182  eV     1   --> A              
     e(  5 -  5) =     -6.15891  eV     1   --> A              
     e(  6 -  6) =     -5.79623  eV     1   --> A              
     e(  7 -  7) =     -5.62616  eV     1   --> A              
     e(  8 -  8) =     -5.10992  eV     1   --> A              
     e(  9 -  9) =     -3.08708  eV     1   --> A              
     e( 10 - 10) =      0.28698  eV     1   --> A              
     e( 11 - 11) =      1.72707  eV     1   --> A              
     e( 12 - 12) =      1.95040  eV     1   --> A              
     e( 13 - 13) =      2.63452  eV     1   --> A              
     e( 14 - 14) =      3.50364  eV     1   --> A              
     e( 15 - 15) =      3.63658  eV     1   --> A              
     e( 16 - 16) =      4.06720  eV     1   --> A              
     e( 17 - 17) =      4.58903  eV     1   --> A              
     e( 18 - 18) =      4.62494  eV     1   --> A              
     e( 19 - 19) =      5.14009  eV     1   --> A              
     e( 20 - 20) =      5.17915  eV     1   --> A              

 **************************************************************************

 **************************************************************************

                    xk=(   0.36587,   0.21024,   0.00000  )

     Band symmetry, C_1 (1)     point group:

     e(  1 -  1) =    -15.21774  eV     1   --> A              
     e(  2 -  2) =    -15.15105  eV     1   --> A              
     e(  3 -  3) =     -8.17649  eV     1   --> A              
     e(  4 -  4) =     -7.60210  eV     1   --> A              
     e(  5 -  5) =     -6.07862  eV     1   --> A              
     e(  6 -  6) =     -5.95352  eV     1   --> A              
     e(  7 -  7) =     -5.77291  eV     1   --> A              
     e(  8 -  8) =     -5.04186  eV     1   --> A              
     e(  9 -  9) =     -3.13763  eV     1   --> A              
     e( 10 - 10) =      0.15681  eV     1   --> A              
     e( 11 - 11) =      1.66161  eV     1   --> A              
     e( 12 - 12) =      1.88871  eV     1   --> A              
     e( 13 - 13) =      2.67111  eV     1   --> A              
     e( 14 - 14) =      3.56454  eV     1   --> A              
     e( 15 - 15) =      3.78885  eV     1   --> A              
     e( 16 - 16) =      4.18980  eV     1   --> A              
     e( 17 - 17) =      4.73374  eV     1   --> A              
     e( 18 - 18) =      4.77372  eV     1   --> A              
     e( 19 - 19) =      5.08288  eV     1   --> A              
     e( 20 - 20) =      5.31283  eV     1   --> A              

 **************************************************************************

 **************************************************************************

                    xk=(   0.38513,   0.22130,   0.00000  )

     Band symmetry, C_1 (1)     point group:

     e(  1 -  1) =    -15.15025  eV     1   --> A              
     e(  2 -  2) =    -15.08737  eV     1   --> A              
     e(  3 -  3) =     -8.25217  eV     1   --> A              
     e(  4 -  4) =     -7.71557  eV     1   --> A              
     e(  5 -  5) =     -6.11168  eV     1   --> A              
     e(  6 -  6) =     -5.98203  eV     1   --> A              
     e(  7 -  7) =     -5.91991  eV     1   --> A              
     e(  8 -  8) =     -4.97588  eV     1   --> A              
     e(  9 -  9) =     -3.19475  eV     1   --> A              
     e( 10 - 10) =      0.02732  eV     1   --> A              
     e( 11 - 11) =      1.61154  eV     1   --> A              
     e( 12 - 12) =      1.82930  eV     1   --> A              
     e( 13 - 13) =      2.71121  eV     1   --> A              
     e( 14 - 14) =      3.63271  eV     1   --> A              
     e( 15 - 15) =      3.95586  eV     1   --> A              
     e( 16 - 16) =      4.33311  eV     1   --> A              
     e( 17 - 17) =      4.76147  eV     1   --> A              
     e( 18 - 18) =      4.90236  eV     1   --> A              
     e( 19 - 19) =      5.12105  eV     1   --> A              
     e( 20 - 20) =      5.48618  eV     1   --> A              

 **************************************************************************

 **************************************************************************

                    xk=(   0.40438,   0.23237,   0.00000  )

     Band symmetry, C_1 (1)     point group:

     e(  1 -  1) =    -15.08681  eV     1   --> A              
     e(  2 -  2) =    -15.02762  eV     1   --> A              
     e(  3 -  3) =     -8.31964  eV     1   --> A              
     e(  4 -  4) =     -7.81117  eV     1   --> A              
     e(  5 -  5) =     -6.26657  eV     1   --> A              
     e(  6 -  6) =     -6.06577  eV     1   --> A              
     e(  7 -  7) =     -5.87708  eV     1   --> A              
     e(  8 -  8) =     -4.91332  eV     1   --> A              
     e(  9 -  9) =     -3.25661  eV     1   --> A              
     e( 10 - 10) =     -0.10019  eV     1   --> A              
     e( 11 - 11) =      1.57590  eV     1   --> A              
     e( 12 - 12) =      1.77763  eV     1   --> A              
     e( 13 - 13) =      2.74897  eV     1   --> A              
     e( 14 - 14) =      3.71338  eV     1   --> A              
     e( 15 - 15) =      4.13356  eV     1   --> A              
     e( 16 - 16) =      4.48900  eV     1   --> A              
     e( 17 - 17) =      4.68761  eV     1   --> A              
     e( 18 - 18) =      4.99690  eV     1   --> A              
     e( 19 - 19) =      5.28841  eV     1   --> A              
     e( 20 - 20) =      5.66225  eV     1   --> A              

 **************************************************************************

 **************************************************************************

                    xk=(   0.42364,   0.24343,   0.00000  )

     Band symmetry, C_1 (1)     point group:

     e(  1 -  1) =    -15.02840  eV     1   --> A              
     e(  2 -  2) =    -14.97269  eV     1   --> A              
     e(  3 -  3) =     -8.37578  eV     1   --> A              
     e(  4 -  4) =     -7.88815  eV     1   --> A              
     e(  5 -  5) =     -6.41818  eV     1   --> A              
     e(  6 -  6) =     -6.20909  eV     1   --> A              
     e(  7 -  7) =     -5.76693  eV     1   --> A              
     e(  8 -  8) =     -4.85535  eV     1   --> A              
     e(  9 -  9) =     -3.32097  eV     1   --> A              
     e( 10 - 10) =     -0.22388  eV     1   --> A              
     e( 11 - 11) =      1.55271  eV     1   --> A              
     e( 12 - 12) =      1.73752  eV     1   --> A              
     e( 13 - 13) =      2.77760  eV     1   --> A              
     e( 14 - 14) =      3.80886  eV     1   --> A              
     e( 15 - 15) =      4.31787  eV     1   --> A              
     e( 16 - 16) =      4.61189  eV     1   --> A              
     e( 17 - 17) =      4.65076  eV     1   --> A              
     e( 18 - 18) =      5.05269  eV     1   --> A              
     e( 19 - 19) =      5.49365  eV     1   --> A              
     e( 20 - 20) =      5.84728  eV     1   --> A              

 **************************************************************************

 **************************************************************************

                    xk=(   0.44290,   0.25450,   0.00000  )

     Band symmetry, C_1 (1)     point group:

     e(  1 -  1) =    -14.97588  eV     1   --> A              
     e(  2 -  2) =    -14.92336  eV     1   --> A              
     e(  3 -  3) =     -8.41859  eV     1   --> A              
     e(  4 -  4) =     -7.94621  eV     1   --> A              
     e(  5 -  5) =     -6.56458  eV     1   --> A              
     e(  6 -  6) =     -6.34835  eV     1   --> A              
     e(  7 -  7) =     -5.65629  eV     1   --> A              
     e(  8 -  8) =     -4.80300  eV     1   --> A              
     e(  9 -  9) =     -3.38518  eV     1   --> A              
     e( 10 - 10) =     -0.34158  eV     1   --> A              
     e( 11 - 11) =      1.53933  eV     1   --> A              
     e( 12 - 12) =      1.71143  eV     1   --> A              
     e( 13 - 13) =      2.79033  eV     1   --> A              
     e( 14 - 14) =      3.91974  eV     1   --> A              
     e( 15 - 15) =      4.49216  eV     1   --> A              
     e( 16 - 16) =      4.57850  eV     1   --> A              
     e( 17 - 17) =      4.81049  eV     1   --> A              
     e( 18 - 18) =      5.08107  eV     1   --> A              
     e( 19 - 19) =      5.71193  eV     1   --> A              
     e( 20 - 20) =      6.04387  eV     1   --> A              

 **************************************************************************

 **************************************************************************

                    xk=(   0.46215,   0.26556,   0.00000  )

     Band symmetry, C_1 (1)     point group:

     e(  1 -  1) =    -14.92998  eV     1   --> A              
     e(  2 -  2) =    -14.88030  eV     1   --> A              
     e(  3 -  3) =     -8.44711  eV     1   --> A              
     e(  4 -  4) =     -7.98553  eV     1   --> A              
     e(  5 -  5) =     -6.70380  eV     1   --> A              
     e(  6 -  6) =     -6.48181  eV     1   --> A              
     e(  7 -  7) =     -5.54961  eV     1   --> A              
     e(  8 -  8) =     -4.75709  eV     1   --> A              
     e(  9 -  9) =     -3.44633  eV     1   --> A              
     e( 10 - 10) =     -0.45086  eV     1   --> A              
     e( 11 - 11) =      1.53288  eV     1   --> A              
     e( 12 - 12) =      1.70071  eV     1   --> A              
     e( 13 - 13) =      2.78219  eV     1   --> A              
     e( 14 - 14) =      4.04563  eV     1   --> A              
     e( 15 - 15) =      4.53385  eV     1   --> A              
     e( 16 - 16) =      4.71753  eV     1   --> A              
     e( 17 - 17) =      4.95141  eV     1   --> A              
     e( 18 - 18) =      5.10745  eV     1   --> A              
     e( 19 - 19) =      5.93375  eV     1   --> A              
     e( 20 - 20) =      6.24471  eV     1   --> A              

 **************************************************************************

 **************************************************************************

                    xk=(   0.48141,   0.27663,   0.00000  )

     Band symmetry, C_1 (1)     point group:

     e(  1 -  1) =    -14.89123  eV     1   --> A              
     e(  2 -  2) =    -14.84398  eV     1   --> A              
     e(  3 -  3) =     -8.46148  eV     1   --> A              
     e(  4 -  4) =     -8.00701  eV     1   --> A              
     e(  5 -  5) =     -6.83351  eV     1   --> A              
     e(  6 -  6) =     -6.60735  eV     1   --> A              
     e(  7 -  7) =     -5.45138  eV     1   --> A              
     e(  8 -  8) =     -4.71825  eV     1   --> A              
     e(  9 -  9) =     -3.50139  eV     1   --> A              
     e( 10 - 10) =     -0.54919  eV     1   --> A              
     e( 11 - 11) =      1.53060  eV     1   --> A              
     e( 12 - 12) =      1.70552  eV     1   --> A              
     e( 13 - 13) =      2.75217  eV     1   --> A              
     e( 14 - 14) =      4.18568  eV     1   --> A              
     e( 15 - 15) =      4.56511  eV     1   --> A              
     e( 16 - 16) =      4.90591  eV     1   --> A              
     e( 17 - 17) =      5.03078  eV     1   --> A              
     e( 18 - 18) =      5.17768  eV     1   --> A              
     e( 19 - 19) =      6.14771  eV     1   --> A              
     e( 20 - 20) =      6.43142  eV     1   --> A              

 **************************************************************************

 **************************************************************************

                    xk=(   0.50067,   0.28769,   0.00000  )

     Band symmetry, C_1 (1)     point group:

     e(  1 -  1) =    -14.85996  eV     1   --> A              
     e(  2 -  2) =    -14.81469  eV     1   --> A              
     e(  3 -  3) =     -8.46307  eV     1   --> A              
     e(  4 -  4) =     -8.01255  eV     1   --> A              
     e(  5 -  5) =     -6.95077  eV     1   --> A              
     e(  6 -  6) =     -6.72224  eV     1   --> A              
     e(  7 -  7) =     -5.36599  eV     1   --> A              
     e(  8 -  8) =     -4.68685  eV     1   --> A              
     e(  9 -  9) =     -3.54751  eV     1   --> A              
     e( 10 - 10) =     -0.63402  eV     1   --> A              
     e( 11 - 11) =      1.53010  eV     1   --> A              
     e( 12 - 12) =      1.72466  eV     1   --> A              
     e( 13 - 13) =      2.70403  eV     1   --> A              
     e( 14 - 14) =      4.33868  eV     1   --> A              
     e( 15 - 15) =      4.63225  eV     1   --> A              
     e( 16 - 16) =      5.05801  eV     1   --> A              
     e( 17 - 17) =      5.08850  eV     1   --> A              
     e( 18 - 18) =      5.27602  eV     1   --> A              
     e( 19 - 19) =      6.33026  eV     1   --> A              
     e( 20 - 20) =      6.58132  eV     1   --> A              

 **************************************************************************

 **************************************************************************

                    xk=(   0.51992,   0.29876,   0.00000  )

     Band symmetry, C_1 (1)     point group:

     e(  1 -  1) =    -14.83626  eV     1   --> A              
     e(  2 -  2) =    -14.79249  eV     1   --> A              
     e(  3 -  3) =     -8.45468  eV     1   --> A              
     e(  4 -  4) =     -8.00542  eV     1   --> A              
     e(  5 -  5) =     -7.05176  eV     1   --> A              
     e(  6 -  6) =     -6.82273  eV     1   --> A              
     e(  7 -  7) =     -5.29737  eV     1   --> A              
     e(  8 -  8) =     -4.66301  eV     1   --> A              
     e(  9 -  9) =     -3.58254  eV     1   --> A              
     e( 10 - 10) =     -0.70286  eV     1   --> A              
     e( 11 - 11) =      1.52972  eV     1   --> A              
     e( 12 - 12) =      1.75499  eV     1   --> A              
     e( 13 - 13) =      2.64561  eV     1   --> A              
     e( 14 - 14) =      4.50312  eV     1   --> A              
     e( 15 - 15) =      4.73126  eV     1   --> A              
     e( 16 - 16) =      5.07704  eV     1   --> A              
     e( 17 - 17) =      5.25136  eV     1   --> A              
     e( 18 - 18) =      5.34341  eV     1   --> A              
     e( 19 - 19) =      6.43614  eV     1   --> A              
     e( 20 - 20) =      6.69557  eV     1   --> A              

 **************************************************************************

 **************************************************************************

                    xk=(   0.53918,   0.30982,   0.00000  )

     Band symmetry, C_1 (1)     point group:

     e(  1 -  1) =    -14.81995  eV     1   --> A              
     e(  2 -  2) =    -14.77721  eV     1   --> A              
     e(  3 -  3) =     -8.44082  eV     1   --> A              
     e(  4 -  4) =     -7.99072  eV     1   --> A              
     e(  5 -  5) =     -7.13153  eV     1   --> A              
     e(  6 -  6) =     -6.90361  eV     1   --> A              
     e(  7 -  7) =     -5.24828  eV     1   --> A              
     e(  8 -  8) =     -4.64659  eV     1   --> A              
     e(  9 -  9) =     -3.60556  eV     1   --> A              
     e( 10 - 10) =     -0.75350  eV     1   --> A              
     e( 11 - 11) =      1.52864  eV     1   --> A              
     e( 12 - 12) =      1.79045  eV     1   --> A              
     e( 13 - 13) =      2.58771  eV     1   --> A              
     e( 14 - 14) =      4.67661  eV     1   --> A              
     e( 15 - 15) =      4.85349  eV     1   --> A              
     e( 16 - 16) =      5.09642  eV     1   --> A              
     e( 17 - 17) =      5.35194  eV     1   --> A              
     e( 18 - 18) =      5.37236  eV     1   --> A              
     e( 19 - 19) =      6.43578  eV     1   --> A              
     e( 20 - 20) =      6.80290  eV     1   --> A              

 **************************************************************************

 **************************************************************************

                    xk=(   0.55843,   0.32089,   0.00000  )

     Band symmetry, C_1 (1)     point group:

     e(  1 -  1) =    -14.81067  eV     1   --> A              
     e(  2 -  2) =    -14.76851  eV     1   --> A              
     e(  3 -  3) =     -8.42757  eV     1   --> A              
     e(  4 -  4) =     -7.97567  eV     1   --> A              
     e(  5 -  5) =     -7.18402  eV     1   --> A              
     e(  6 -  6) =     -6.95794  eV     1   --> A              
     e(  7 -  7) =     -5.21975  eV     1   --> A              
     e(  8 -  8) =     -4.63721  eV     1   --> A              
     e(  9 -  9) =     -3.61742  eV     1   --> A              
     e( 10 - 10) =     -0.78426  eV     1   --> A              
     e( 11 - 11) =      1.52704  eV     1   --> A              
     e( 12 - 12) =      1.82107  eV     1   --> A              
     e( 13 - 13) =      2.54356  eV     1   --> A              
     e( 14 - 14) =      4.85256  eV     1   --> A              
     e( 15 - 15) =      4.98361  eV     1   --> A              
     e( 16 - 16) =      5.11327  eV     1   --> A              
     e( 17 - 17) =      5.29103  eV     1   --> A              
     e( 18 - 18) =      5.41815  eV     1   --> A              
     e( 19 - 19) =      6.38460  eV     1   --> A              
     e( 20 - 20) =      6.91828  eV     1   --> A              

 **************************************************************************

 **************************************************************************

                    xk=(   0.57769,   0.33195,   0.00000  )

     Band symmetry, C_1 (1)     point group:

     e(  1 -  1) =    -14.80781  eV     1   --> A              
     e(  2 -  2) =    -14.76584  eV     1   --> A              
     e(  3 -  3) =     -8.42170  eV     1   --> A              
     e(  4 -  4) =     -7.96872  eV     1   --> A              
     e(  5 -  5) =     -7.20291  eV     1   --> A              
     e(  6 -  6) =     -6.97788  eV     1   --> A              
     e(  7 -  7) =     -5.21080  eV     1   --> A              
     e(  8 -  8) =     -4.63430  eV     1   --> A              
     e(  9 -  9) =     -3.62071  eV     1   --> A              
     e( 10 - 10) =     -0.79436  eV     1   --> A              
     e( 11 - 11) =      1.52609  eV     1   --> A              
     e( 12 - 12) =      1.83381  eV     1   --> A              
     e( 13 - 13) =      2.52694  eV     1   --> A              
     e( 14 - 14) =      4.97843  eV     1   --> A              
     e( 15 - 15) =      5.06857  eV     1   --> A              
     e( 16 - 16) =      5.12103  eV     1   --> A              
     e( 17 - 17) =      5.20587  eV     1   --> A              
     e( 18 - 18) =      5.39671  eV     1   --> A              
     e( 19 - 19) =      6.35978  eV     1   --> A              
     e( 20 - 20) =      6.99169  eV     1   --> A              

 **************************************************************************

 **************************************************************************

                    xk=(   0.57769,   0.32089,   0.00000  )

     Band symmetry, C_1 (1)     point group:

     e(  1 -  1) =    -14.80837  eV     1   --> A              
     e(  2 -  2) =    -14.76636  eV     1   --> A              
     e(  3 -  3) =     -8.42351  eV     1   --> A              
     e(  4 -  4) =     -7.97099  eV     1   --> A              
     e(  5 -  5) =     -7.19780  eV     1   --> A              
     e(  6 -  6) =     -6.97235  eV     1   --> A              
     e(  7 -  7) =     -5.21277  eV     1   --> A              
     e(  8 -  8) =     -4.63490  eV     1   --> A              
     e(  9 -  9) =     -3.61999  eV     1   --> A              
     e( 10 - 10) =     -0.79207  eV     1   --> A              
     e( 11 - 11) =      1.52647  eV     1   --> A              
     e( 12 - 12) =      1.83038  eV     1   --> A              
     e( 13 - 13) =      2.53068  eV     1   --> A              
     e( 14 - 14) =      4.91520  eV     1   --> A              
     e( 15 - 15) =      5.02475  eV     1   --> A              
     e( 16 - 16) =      5.11895  eV     1   --> A              
     e( 17 - 17) =      5.25612  eV     1   --> A              
     e( 18 - 18) =      5.42411  eV     1   --> A              
     e( 19 - 19) =      6.36563  eV     1   --> A              
     e( 20 - 20) =      6.97170  eV     1   --> A              

 **************************************************************************

 **************************************************************************

                    xk=(   0.57769,   0.30982,   0.00000  )

     Band symmetry, C_1 (1)     point group:

     e(  1 -  1) =    -14.81023  eV     1   --> A              
     e(  2 -  2) =    -14.76810  eV     1   --> A              
     e(  3 -  3) =     -8.42896  eV     1   --> A              
     e(  4 -  4) =     -7.97753  eV     1   --> A              
     e(  5 -  5) =     -7.18291  eV     1   --> A              
     e(  6 -  6) =     -6.95643  eV     1   --> A              
     e(  7 -  7) =     -5.21849  eV     1   --> A              
     e(  8 -  8) =     -4.63682  eV     1   --> A              
     e(  9 -  9) =     -3.61856  eV     1   --> A              
     e( 10 - 10) =     -0.78504  eV     1   --> A              
     e( 11 - 11) =      1.52790  eV     1   --> A              
     e( 12 - 12) =      1.81972  eV     1   --> A              
     e( 13 - 13) =      2.54255  eV     1   --> A              
     e( 14 - 14) =      4.80111  eV     1   --> A              
     e( 15 - 15) =      4.93289  eV     1   --> A              
     e( 16 - 16) =      5.11234  eV     1   --> A              
     e( 17 - 17) =      5.34199  eV     1   --> A              
     e( 18 - 18) =      5.48177  eV     1   --> A              
     e( 19 - 19) =      6.37423  eV     1   --> A              
     e( 20 - 20) =      6.94213  eV     1   --> A              

 **************************************************************************

 **************************************************************************

                    xk=(   0.57769,   0.29876,   0.00000  )

     Band symmetry, C_1 (1)     point group:

     e(  1 -  1) =    -14.81329  eV     1   --> A              
     e(  2 -  2) =    -14.77097  eV     1   --> A              
     e(  3 -  3) =     -8.43819  eV     1   --> A              
     e(  4 -  4) =     -7.98843  eV     1   --> A              
     e(  5 -  5) =     -7.15830  eV     1   --> A              
     e(  6 -  6) =     -6.93020  eV     1   --> A              
     e(  7 -  7) =     -5.22747  eV     1   --> A              
     e(  8 -  8) =     -4.63994  eV     1   --> A              
     e(  9 -  9) =     -3.61688  eV     1   --> A              
     e( 10 - 10) =     -0.77363  eV     1   --> A              
     e( 11 - 11) =      1.53078  eV     1   --> A              
     e( 12 - 12) =      1.80232  eV     1   --> A              
     e( 13 - 13) =      2.56081  eV     1   --> A              
     e( 14 - 14) =      4.66237  eV     1   --> A              
     e( 15 - 15) =      4.81421  eV     1   --> A              
     e( 16 - 16) =      5.10130  eV     1   --> A              
     e( 17 - 17) =      5.43938  eV     1   --> A              
     e( 18 - 18) =      5.55507  eV     1   --> A              
     e( 19 - 19) =      6.38067  eV     1   --> A              
     e( 20 - 20) =      6.91910  eV     1   --> A              

 **************************************************************************

 **************************************************************************

                    xk=(   0.57769,   0.28769,   0.00000  )

     Band symmetry, C_1 (1)     point group:

     e(  1 -  1) =    -14.81743  eV     1   --> A              
     e(  2 -  2) =    -14.77486  eV     1   --> A              
     e(  3 -  3) =     -8.45108  eV     1   --> A              
     e(  4 -  4) =     -8.00344  eV     1   --> A              
     e(  5 -  5) =     -7.12425  eV     1   --> A              
     e(  6 -  6) =     -6.89409  eV     1   --> A              
     e(  7 -  7) =     -5.23923  eV     1   --> A              
     e(  8 -  8) =     -4.64416  eV     1   --> A              
     e(  9 -  9) =     -3.61536  eV     1   --> A              
     e( 10 - 10) =     -0.75832  eV     1   --> A              
     e( 11 - 11) =      1.53556  eV     1   --> A              
     e( 12 - 12) =      1.77919  eV     1   --> A              
     e( 13 - 13) =      2.58265  eV     1   --> A              
     e( 14 - 14) =      4.50821  eV     1   --> A              
     e( 15 - 15) =      4.68343  eV     1   --> A              
     e( 16 - 16) =      5.08585  eV     1   --> A              
     e( 17 - 17) =      5.54189  eV     1   --> A              
     e( 18 - 18) =      5.63518  eV     1   --> A              
     e( 19 - 19) =      6.38168  eV     1   --> A              
     e( 20 - 20) =      6.90644  eV     1   --> A              

 **************************************************************************

 **************************************************************************

                    xk=(   0.57769,   0.27663,   0.00000  )

     Band symmetry, C_1 (1)     point group:

     e(  1 -  1) =    -14.82254  eV     1   --> A              
     e(  2 -  2) =    -14.77966  eV     1   --> A              
     e(  3 -  3) =     -8.46732  eV     1   --> A              
     e(  4 -  4) =     -8.02208  eV     1   --> A              
     e(  5 -  5) =     -7.08130  eV     1   --> A              
     e(  6 -  6) =     -6.84879  eV     1   --> A              
     e(  7 -  7) =     -5.25329  eV     1   --> A              
     e(  8 -  8) =     -4.64937  eV     1   --> A              
     e(  9 -  9) =     -3.61436  eV     1   --> A              
     e( 10 - 10) =     -0.73972  eV     1   --> A              
     e( 11 - 11) =      1.54274  eV     1   --> A              
     e( 12 - 12) =      1.75156  eV     1   --> A              
     e( 13 - 13) =      2.60433  eV     1   --> A              
     e( 14 - 14) =      4.34349  eV     1   --> A              
     e( 15 - 15) =      4.55031  eV     1   --> A              
     e( 16 - 16) =      5.06625  eV     1   --> A              
     e( 17 - 17) =      5.64737  eV     1   --> A              
     e( 18 - 18) =      5.71762  eV     1   --> A              
     e( 19 - 19) =      6.37582  eV     1   --> A              
     e( 20 - 20) =      6.90279  eV     1   --> A              

 **************************************************************************

 **************************************************************************

                    xk=(   0.57769,   0.26556,   0.00000  )

     Band symmetry, C_1 (1)     point group:

     e(  1 -  1) =    -14.82851  eV     1   --> A              
     e(  2 -  2) =    -14.78528  eV     1   --> A              
     e(  3 -  3) =     -8.48647  eV     1   --> A              
     e(  4 -  4) =     -8.04371  eV     1   --> A              
     e(  5 -  5) =     -7.03015  eV     1   --> A              
     e(  6 -  6) =     -6.79517  eV     1   --> A              
     e(  7 -  7) =     -5.26918  eV     1   --> A              
     e(  8 -  8) =     -4.65545  eV     1   --> A              
     e(  9 -  9) =     -3.61413  eV     1   --> A              
     e( 10 - 10) =     -0.71855  eV     1   --> A              
     e( 11 - 11) =      1.55286  eV     1   --> A              
     e( 12 - 12) =      1.72062  eV     1   --> A              
     e( 13 - 13) =      2.62122  eV     1   --> A              
     e( 14 - 14) =      4.17168  eV     1   --> A              
     e( 15 - 15) =      4.42270  eV     1   --> A              
     e( 16 - 16) =      5.04298  eV     1   --> A              
     e( 17 - 17) =      5.75476  eV     1   --> A              
     e( 18 - 18) =      5.79962  eV     1   --> A              
     e( 19 - 19) =      6.36325  eV     1   --> A              
     e( 20 - 20) =      6.90461  eV     1   --> A              

 **************************************************************************

 **************************************************************************

                    xk=(   0.57769,   0.25450,   0.00000  )

     Band symmetry, C_1 (1)     point group:

     e(  1 -  1) =    -14.83521  eV     1   --> A              
     e(  2 -  2) =    -14.79159  eV     1   --> A              
     e(  3 -  3) =     -8.50801  eV     1   --> A              
     e(  4 -  4) =     -8.06768  eV     1   --> A              
     e(  5 -  5) =     -6.97157  eV     1   --> A              
     e(  6 -  6) =     -6.73414  eV     1   --> A              
     e(  7 -  7) =     -5.28646  eV     1   --> A              
     e(  8 -  8) =     -4.66228  eV     1   --> A              
     e(  9 -  9) =     -3.61486  eV     1   --> A              
     e( 10 - 10) =     -0.69565  eV     1   --> A              
     e( 11 - 11) =      1.56648  eV     1   --> A              
     e( 12 - 12) =      1.68741  eV     1   --> A              
     e( 13 - 13) =      2.62789  eV     1   --> A              
     e( 14 - 14) =      3.99554  eV     1   --> A              
     e( 15 - 15) =      4.30792  eV     1   --> A              
     e( 16 - 16) =      5.01660  eV     1   --> A              
     e( 17 - 17) =      5.86334  eV     1   --> A              
     e( 18 - 18) =      5.87896  eV     1   --> A              
     e( 19 - 19) =      6.34522  eV     1   --> A              
     e( 20 - 20) =      6.90749  eV     1   --> A              

 **************************************************************************

 **************************************************************************

                    xk=(   0.57769,   0.24343,   0.00000  )

     Band symmetry, C_1 (1)     point group:

     e(  1 -  1) =    -14.84254  eV     1   --> A              
     e(  2 -  2) =    -14.79850  eV     1   --> A              
     e(  3 -  3) =     -8.53139  eV     1   --> A              
     e(  4 -  4) =     -8.09334  eV     1   --> A              
     e(  5 -  5) =     -6.90641  eV     1   --> A              
     e(  6 -  6) =     -6.66661  eV     1   --> A              
     e(  7 -  7) =     -5.30471  eV     1   --> A              
     e(  8 -  8) =     -4.66976  eV     1   --> A              
     e(  9 -  9) =     -3.61667  eV     1   --> A              
     e( 10 - 10) =     -0.67196  eV     1   --> A              
     e( 11 - 11) =      1.58418  eV     1   --> A              
     e( 12 - 12) =      1.65277  eV     1   --> A              
     e( 13 - 13) =      2.61844  eV     1   --> A              
     e( 14 - 14) =      3.81738  eV     1   --> A              
     e( 15 - 15) =      4.21306  eV     1   --> A              
     e( 16 - 16) =      4.98770  eV     1   --> A              
     e( 17 - 17) =      5.95323  eV     1   --> A              
     e( 18 - 18) =      5.97252  eV     1   --> A              
     e( 19 - 19) =      6.32376  eV     1   --> A              
     e( 20 - 20) =      6.90710  eV     1   --> A              

 **************************************************************************

 **************************************************************************

                    xk=(   0.57769,   0.23237,   0.00000  )

     Band symmetry, C_1 (1)     point group:

     e(  1 -  1) =    -14.85039  eV     1   --> A              
     e(  2 -  2) =    -14.80590  eV     1   --> A              
     e(  3 -  3) =     -8.55610  eV     1   --> A              
     e(  4 -  4) =     -8.12012  eV     1   --> A              
     e(  5 -  5) =     -6.83552  eV     1   --> A              
     e(  6 -  6) =     -6.59347  eV     1   --> A              
     e(  7 -  7) =     -5.32356  eV     1   --> A              
     e(  8 -  8) =     -4.67778  eV     1   --> A              
     e(  9 -  9) =     -3.61960  eV     1   --> A              
     e( 10 - 10) =     -0.64847  eV     1   --> A              
     e( 11 - 11) =      1.60652  eV     1   --> A              
     e( 12 - 12) =      1.61739  eV     1   --> A              
     e( 13 - 13) =      2.58751  eV     1   --> A              
     e( 14 - 14) =      3.63911  eV     1   --> A              
     e( 15 - 15) =      4.14435  eV     1   --> A              
     e( 16 - 16) =      4.95683  eV     1   --> A              
     e( 17 - 17) =      6.01953  eV     1   --> A              
     e( 18 - 18) =      6.08139  eV     1   --> A              
     e( 19 - 19) =      6.30175  eV     1   --> A              
     e( 20 - 20) =      6.90010  eV     1   --> A              

 **************************************************************************

 **************************************************************************

                    xk=(   0.57769,   0.22130,   0.00000  )

     Band symmetry, C_1 (1)     point group:

     e(  1 -  1) =    -14.85863  eV     1   --> A              
     e(  2 -  2) =    -14.81368  eV     1   --> A              
     e(  3 -  3) =     -8.58167  eV     1   --> A              
     e(  4 -  4) =     -8.14750  eV     1   --> A              
     e(  5 -  5) =     -6.75975  eV     1   --> A              
     e(  6 -  6) =     -6.51553  eV     1   --> A              
     e(  7 -  7) =     -5.34263  eV     1   --> A              
     e(  8 -  8) =     -4.68624  eV     1   --> A              
     e(  9 -  9) =     -3.62362  eV     1   --> A              
     e( 10 - 10) =     -0.62623  eV     1   --> A              
     e( 11 - 11) =      1.58175  eV     1   --> A              
     e( 12 - 12) =      1.63405  eV     1   --> A              
     e( 13 - 13) =      2.53182  eV     1   --> A              
     e( 14 - 14) =      3.46239  eV     1   --> A              
     e( 15 - 15) =      4.10572  eV     1   --> A              
     e( 16 - 16) =      4.92450  eV     1   --> A              
     e( 17 - 17) =      6.07296  eV     1   --> A              
     e( 18 - 18) =      6.18907  eV     1   --> A              
     e( 19 - 19) =      6.28385  eV     1   --> A              
     e( 20 - 20) =      6.88490  eV     1   --> A              

 **************************************************************************

 **************************************************************************

                    xk=(   0.57769,   0.21024,   0.00000  )

     Band symmetry, C_1 (1)     point group:

     e(  1 -  1) =    -14.86717  eV     1   --> A              
     e(  2 -  2) =    -14.82175  eV     1   --> A              
     e(  3 -  3) =     -8.60767  eV     1   --> A              
     e(  4 -  4) =     -8.17507  eV     1   --> A              
     e(  5 -  5) =     -6.67993  eV     1   --> A              
     e(  6 -  6) =     -6.43358  eV     1   --> A              
     e(  7 -  7) =     -5.36157  eV     1   --> A              
     e(  8 -  8) =     -4.69502  eV     1   --> A              
     e(  9 -  9) =     -3.62869  eV     1   --> A              
     e( 10 - 10) =     -0.60627  eV     1   --> A              
     e( 11 - 11) =      1.54627  eV     1   --> A              
     e( 12 - 12) =      1.66720  eV     1   --> A              
     e( 13 - 13) =      2.45141  eV     1   --> A              
     e( 14 - 14) =      3.28868  eV     1   --> A              
     e( 15 - 15) =      4.09767  eV     1   --> A              
     e( 16 - 16) =      4.89115  eV     1   --> A              
     e( 17 - 17) =      6.10563  eV     1   --> A              
     e( 18 - 18) =      6.27773  eV     1   --> A              
     e( 19 - 19) =      6.29425  eV     1   --> A              
     e( 20 - 20) =      6.86173  eV     1   --> A              

 **************************************************************************

 **************************************************************************

                    xk=(   0.57769,   0.19917,   0.00000  )

     Band symmetry, C_1 (1)     point group:

     e(  1 -  1) =    -14.87591  eV     1   --> A              
     e(  2 -  2) =    -14.83001  eV     1   --> A              
     e(  3 -  3) =     -8.63374  eV     1   --> A              
     e(  4 -  4) =     -8.20246  eV     1   --> A              
     e(  5 -  5) =     -6.59691  eV     1   --> A              
     e(  6 -  6) =     -6.34835  eV     1   --> A              
     e(  7 -  7) =     -5.38006  eV     1   --> A              
     e(  8 -  8) =     -4.70404  eV     1   --> A              
     e(  9 -  9) =     -3.63470  eV     1   --> A              
     e( 10 - 10) =     -0.58957  eV     1   --> A              
     e( 11 - 11) =      1.51119  eV     1   --> A              
     e( 12 - 12) =      1.70636  eV     1   --> A              
     e( 13 - 13) =      2.34946  eV     1   --> A              
     e( 14 - 14) =      3.11928  eV     1   --> A              
     e( 15 - 15) =      4.11753  eV     1   --> A              
     e( 16 - 16) =      4.85712  eV     1   --> A              
     e( 17 - 17) =      6.11173  eV     1   --> A              
     e( 18 - 18) =      6.28919  eV     1   --> A              
     e( 19 - 19) =      6.39481  eV     1   --> A              
     e( 20 - 20) =      6.83238  eV     1   --> A              

 **************************************************************************

 **************************************************************************

                    xk=(   0.57769,   0.18811,   0.00000  )

     Band symmetry, C_1 (1)     point group:

     e(  1 -  1) =    -14.88473  eV     1   --> A              
     e(  2 -  2) =    -14.83835  eV     1   --> A              
     e(  3 -  3) =     -8.65956  eV     1   --> A              
     e(  4 -  4) =     -8.22937  eV     1   --> A              
     e(  5 -  5) =     -6.51156  eV     1   --> A              
     e(  6 -  6) =     -6.26058  eV     1   --> A              
     e(  7 -  7) =     -5.39775  eV     1   --> A              
     e(  8 -  8) =     -4.71320  eV     1   --> A              
     e(  9 -  9) =     -3.64154  eV     1   --> A              
     e( 10 - 10) =     -0.57701  eV     1   --> A              
     e( 11 - 11) =      1.47666  eV     1   --> A              
     e( 12 - 12) =      1.75170  eV     1   --> A              
     e( 13 - 13) =      2.23096  eV     1   --> A              
     e( 14 - 14) =      2.95541  eV     1   --> A              
     e( 15 - 15) =      4.16077  eV     1   --> A              
     e( 16 - 16) =      4.82271  eV     1   --> A              
     e( 17 - 17) =      6.09785  eV     1   --> A              
     e( 18 - 18) =      6.31169  eV     1   --> A              
     e( 19 - 19) =      6.48705  eV     1   --> A              
     e( 20 - 20) =      6.80034  eV     1   --> A              

 **************************************************************************

 **************************************************************************

                    xk=(   0.57769,   0.17704,   0.00000  )

     Band symmetry, C_1 (1)     point group:

     e(  1 -  1) =    -14.89356  eV     1   --> A              
     e(  2 -  2) =    -14.84671  eV     1   --> A              
     e(  3 -  3) =     -8.68486  eV     1   --> A              
     e(  4 -  4) =     -8.25557  eV     1   --> A              
     e(  5 -  5) =     -6.42476  eV     1   --> A              
     e(  6 -  6) =     -6.17095  eV     1   --> A              
     e(  7 -  7) =     -5.41426  eV     1   --> A              
     e(  8 -  8) =     -4.72243  eV     1   --> A              
     e(  9 -  9) =     -3.64905  eV     1   --> A              
     e( 10 - 10) =     -0.56935  eV     1   --> A              
     e( 11 - 11) =      1.44271  eV     1   --> A              
     e( 12 - 12) =      1.80322  eV     1   --> A              
     e( 13 - 13) =      2.10125  eV     1   --> A              
     e( 14 - 14) =      2.79823  eV     1   --> A              
     e( 15 - 15) =      4.22260  eV     1   --> A              
     e( 16 - 16) =      4.78812  eV     1   --> A              
     e( 17 - 17) =      6.07452  eV     1   --> A              
     e( 18 - 18) =      6.33521  eV     1   --> A              
     e( 19 - 19) =      6.56202  eV     1   --> A              
     e( 20 - 20) =      6.77380  eV     1   --> A              

 **************************************************************************

 **************************************************************************

                    xk=(   0.57769,   0.16598,   0.00000  )

     Band symmetry, C_1 (1)     point group:

     e(  1 -  1) =    -14.90229  eV     1   --> A              
     e(  2 -  2) =    -14.85498  eV     1   --> A              
     e(  3 -  3) =     -8.70941  eV     1   --> A              
     e(  4 -  4) =     -8.28085  eV     1   --> A              
     e(  5 -  5) =     -6.33751  eV     1   --> A              
     e(  6 -  6) =     -6.08017  eV     1   --> A              
     e(  7 -  7) =     -5.42920  eV     1   --> A              
     e(  8 -  8) =     -4.73163  eV     1   --> A              
     e(  9 -  9) =     -3.65710  eV     1   --> A              
     e( 10 - 10) =     -0.56715  eV     1   --> A              
     e( 11 - 11) =      1.40913  eV     1   --> A              
     e( 12 - 12) =      1.86060  eV     1   --> A              
     e( 13 - 13) =      1.96526  eV     1   --> A              
     e( 14 - 14) =      2.64896  eV     1   --> A              
     e( 15 - 15) =      4.29877  eV     1   --> A              
     e( 16 - 16) =      4.75352  eV     1   --> A              
     e( 17 - 17) =      6.04755  eV     1   --> A              
     e( 18 - 18) =      6.35480  eV     1   --> A              
     e( 19 - 19) =      6.59777  eV     1   --> A              
     e( 20 - 20) =      6.77318  eV     1   --> A              

 **************************************************************************

 **************************************************************************

                    xk=(   0.57769,   0.15491,   0.00000  )

     Band symmetry, C_1 (1)     point group:

     e(  1 -  1) =    -14.91086  eV     1   --> A              
     e(  2 -  2) =    -14.86310  eV     1   --> A              
     e(  3 -  3) =     -8.73301  eV     1   --> A              
     e(  4 -  4) =     -8.30503  eV     1   --> A              
     e(  5 -  5) =     -6.25088  eV     1   --> A              
     e(  6 -  6) =     -5.98896  eV     1   --> A              
     e(  7 -  7) =     -5.44207  eV     1   --> A              
     e(  8 -  8) =     -4.74076  eV     1   --> A              
     e(  9 -  9) =     -3.66555  eV     1   --> A              
     e( 10 - 10) =     -0.57076  eV     1   --> A              
     e( 11 - 11) =      1.37538  eV     1   --> A              
     e( 12 - 12) =      1.82742  eV     1   --> A              
     e( 13 - 13) =      1.92295  eV     1   --> A              
     e( 14 - 14) =      2.50907  eV     1   --> A              
     e( 15 - 15) =      4.38582  eV     1   --> A              
     e( 16 - 16) =      4.71901  eV     1   --> A              
     e( 17 - 17) =      6.01955  eV     1   --> A              
     e( 18 - 18) =      6.36903  eV     1   --> A              
     e( 19 - 19) =      6.58197  eV     1   --> A              
     e( 20 - 20) =      6.80862  eV     1   --> A              

 **************************************************************************

 **************************************************************************

                    xk=(   0.57769,   0.14385,   0.00000  )

     Band symmetry, C_1 (1)     point group:

     e(  1 -  1) =    -14.91917  eV     1   --> A              
     e(  2 -  2) =    -14.87098  eV     1   --> A              
     e(  3 -  3) =     -8.75551  eV     1   --> A              
     e(  4 -  4) =     -8.32798  eV     1   --> A              
     e(  5 -  5) =     -6.16615  eV     1   --> A              
     e(  6 -  6) =     -5.89805  eV     1   --> A              
     e(  7 -  7) =     -5.45224  eV     1   --> A              
     e(  8 -  8) =     -4.74974  eV     1   --> A              
     e(  9 -  9) =     -3.67423  eV     1   --> A              
     e( 10 - 10) =     -0.58030  eV     1   --> A              
     e( 11 - 11) =      1.34007  eV     1   --> A              
     e( 12 - 12) =      1.69222  eV     1   --> A              
     e( 13 - 13) =      1.98801  eV     1   --> A              
     e( 14 - 14) =      2.38110  eV     1   --> A              
     e( 15 - 15) =      4.48105  eV     1   --> A              
     e( 16 - 16) =      4.68464  eV     1   --> A              
     e( 17 - 17) =      5.99176  eV     1   --> A              
     e( 18 - 18) =      6.37799  eV     1   --> A              
     e( 19 - 19) =      6.53903  eV     1   --> A              
     e( 20 - 20) =      6.85324  eV     1   --> A              

 **************************************************************************

 **************************************************************************

                    xk=(   0.57769,   0.13278,   0.00000  )

     Band symmetry, C_1 (1)     point group:

     e(  1 -  1) =    -14.92715  eV     1   --> A              
     e(  2 -  2) =    -14.87855  eV     1   --> A              
     e(  3 -  3) =     -8.77677  eV     1   --> A              
     e(  4 -  4) =     -8.34959  eV     1   --> A              
     e(  5 -  5) =     -6.08482  eV     1   --> A              
     e(  6 -  6) =     -5.80821  eV     1   --> A              
     e(  7 -  7) =     -5.45892  eV     1   --> A              
     e(  8 -  8) =     -4.75852  eV     1   --> A              
     e(  9 -  9) =     -3.68302  eV     1   --> A              
     e( 10 - 10) =     -0.59563  eV     1   --> A              
     e( 11 - 11) =      1.29981  eV     1   --> A              
     e( 12 - 12) =      1.56556  eV     1   --> A              
     e( 13 - 13) =      2.04755  eV     1   --> A              
     e( 14 - 14) =      2.27329  eV     1   --> A              
     e( 15 - 15) =      4.58229  eV     1   --> A              
     e( 16 - 16) =      4.65043  eV     1   --> A              
     e( 17 - 17) =      5.96482  eV     1   --> A              
     e( 18 - 18) =      6.38239  eV     1   --> A              
     e( 19 - 19) =      6.48535  eV     1   --> A              
     e( 20 - 20) =      6.88892  eV     1   --> A              

 **************************************************************************

 **************************************************************************

                    xk=(   0.57769,   0.12172,   0.00000  )

     Band symmetry, C_1 (1)     point group:

     e(  1 -  1) =    -14.93474  eV     1   --> A              
     e(  2 -  2) =    -14.88576  eV     1   --> A              
     e(  3 -  3) =     -8.79666  eV     1   --> A              
     e(  4 -  4) =     -8.36974  eV     1   --> A              
     e(  5 -  5) =     -6.00872  eV     1   --> A              
     e(  6 -  6) =     -5.72023  eV     1   --> A              
     e(  7 -  7) =     -5.46104  eV     1   --> A              
     e(  8 -  8) =     -4.76706  eV     1   --> A              
     e(  9 -  9) =     -3.69176  eV     1   --> A              
     e( 10 - 10) =     -0.61632  eV     1   --> A              
     e( 11 - 11) =      1.24681  eV     1   --> A              
     e( 12 - 12) =      1.45734  eV     1   --> A              
     e( 13 - 13) =      2.06070  eV     1   --> A              
     e( 14 - 14) =      2.22613  eV     1   --> A              
     e( 15 - 15) =      4.61638  eV     1   --> A              
     e( 16 - 16) =      4.68776  eV     1   --> A              
     e( 17 - 17) =      5.93913  eV     1   --> A              
     e( 18 - 18) =      6.38313  eV     1   --> A              
     e( 19 - 19) =      6.42635  eV     1   --> A              
     e( 20 - 20) =      6.91072  eV     1   --> A              

 **************************************************************************

[...]
     e(  4 -  4) =     -6.23506  eV     1   --> A'             
     e(  5 -  5) =     -5.82973  eV     1   --> A'             
     e(  6 -  6) =     -5.48746  eV     1   --> A'             
     e(  7 -  7) =     -4.59670  eV     1   --> A''            
     e(  8 -  8) =     -4.52487  eV     1   --> A''            
     e(  9 -  9) =     -2.97983  eV     1   --> A'             
     e( 10 - 10) =      0.89233  eV     1   --> A'             
     e( 11 - 11) =      1.40113  eV     1   --> A'             
     e( 12 - 12) =      2.66072  eV     1   --> A'             
     e( 13 - 13) =      2.68659  eV     1   --> A'             
     e( 14 - 14) =      3.17201  eV     1   --> A''            
     e( 15 - 15) =      3.35295  eV     1   --> A'             
     e( 16 - 16) =      3.36657  eV     1   --> A'             
     e( 17 - 17) =      3.86751  eV     1   --> A'             
     e( 18 - 18) =      4.38386  eV     1   --> A'             
     e( 19 - 19) =      4.59399  eV     1   --> A'             
     e( 20 - 20) =      4.63432  eV     1   --> A''            

 **************************************************************************

 **************************************************************************

                    xk=(   0.21182,   0.00000,   0.00000  )

     Band symmetry, C_s (m)     point group:

     e(  1 -  1) =    -15.87355  eV     1   --> A'             
     e(  2 -  2) =    -15.77512  eV     1   --> A'             
     e(  3 -  3) =     -7.93915  eV     1   --> A'             
     e(  4 -  4) =     -6.12740  eV     1   --> A'             
     e(  5 -  5) =     -5.65787  eV     1   --> A'             
     e(  6 -  6) =     -5.43250  eV     1   --> A'             
     e(  7 -  7) =     -4.54094  eV     1   --> A''            
     e(  8 -  8) =     -4.47149  eV     1   --> A''            
     e(  9 -  9) =     -2.98911  eV     1   --> A'             
     e( 10 - 10) =      1.06767  eV     1   --> A'             
     e( 11 - 11) =      1.40124  eV     1   --> A'             
     e( 12 - 12) =      2.68513  eV     1   --> A'             
     e( 13 - 13) =      2.68767  eV     1   --> A'             
     e( 14 - 14) =      3.14248  eV     1   --> A''            
     e( 15 - 15) =      3.26204  eV     1   --> A'             
     e( 16 - 16) =      3.32803  eV     1   --> A'             
     e( 17 - 17) =      3.77132  eV     1   --> A'             
     e( 18 - 18) =      4.27468  eV     1   --> A'             
     e( 19 - 19) =      4.47219  eV     1   --> A'             
     e( 20 - 20) =      4.47293  eV     1   --> A''            

 **************************************************************************

 **************************************************************************

                    xk=(   0.19256,   0.00000,   0.00000  )

     Band symmetry, C_s (m)     point group:

     e(  1 -  1) =    -15.92138  eV     1   --> A'             
     e(  2 -  2) =    -15.82096  eV     1   --> A'             
     e(  3 -  3) =     -7.97405  eV     1   --> A'             
     e(  4 -  4) =     -6.06736  eV     1   --> A'             
     e(  5 -  5) =     -5.47739  eV     1   --> A'             
     e(  6 -  6) =     -5.32740  eV     1   --> A'             
     e(  7 -  7) =     -4.48628  eV     1   --> A''            
     e(  8 -  8) =     -4.41925  eV     1   --> A''            
     e(  9 -  9) =     -3.00198  eV     1   --> A'             
     e( 10 - 10) =      1.23868  eV     1   --> A'             
     e( 11 - 11) =      1.36922  eV     1   --> A'             
     e( 12 - 12) =      2.63137  eV     1   --> A'             
     e( 13 - 13) =      2.71057  eV     1   --> A'             
     e( 14 - 14) =      3.10145  eV     1   --> A''            
     e( 15 - 15) =      3.17073  eV     1   --> A'             
     e( 16 - 16) =      3.30029  eV     1   --> A'             
     e( 17 - 17) =      3.69018  eV     1   --> A'             
     e( 18 - 18) =      4.16031  eV     1   --> A'             
     e( 19 - 19) =      4.31557  eV     1   --> A''            
     e( 20 - 20) =      4.40205  eV     1   --> A'             

 **************************************************************************

 **************************************************************************

                    xk=(   0.17331,   0.00000,   0.00000  )

     Band symmetry, C_s (m)     point group:

     e(  1 -  1) =    -15.96550  eV     1   --> A'             
     e(  2 -  2) =    -15.86329  eV     1   --> A'             
     e(  3 -  3) =     -8.01025  eV     1   --> A'             
     e(  4 -  4) =     -6.04559  eV     1   --> A'             
     e(  5 -  5) =     -5.29267  eV     1   --> A'             
     e(  6 -  6) =     -5.18331  eV     1   --> A'             
     e(  7 -  7) =     -4.43345  eV     1   --> A''            
     e(  8 -  8) =     -4.36883  eV     1   --> A''            
     e(  9 -  9) =     -3.01780  eV     1   --> A'             
     e( 10 - 10) =      1.30508  eV     1   --> A'             
     e( 11 - 11) =      1.39939  eV     1   --> A'             
     e( 12 - 12) =      2.52796  eV     1   --> A'             
     e( 13 - 13) =      2.74020  eV     1   --> A'             
     e( 14 - 14) =      3.05090  eV     1   --> A''            
     e( 15 - 15) =      3.09687  eV     1   --> A'             
     e( 16 - 16) =      3.26851  eV     1   --> A'             
     e( 17 - 17) =      3.62165  eV     1   --> A'             
     e( 18 - 18) =      4.05517  eV     1   --> A'             
     e( 19 - 19) =      4.16533  eV     1   --> A''            
     e( 20 - 20) =      4.36664  eV     1   --> A'             

 **************************************************************************

 **************************************************************************

                    xk=(   0.15405,   0.00000,   0.00000  )

     Band symmetry, C_s (m)     point group:

     e(  1 -  1) =    -16.00564  eV     1   --> A'             
     e(  2 -  2) =    -15.90182  eV     1   --> A'             
     e(  3 -  3) =     -8.04585  eV     1   --> A'             
     e(  4 -  4) =     -6.04612  eV     1   --> A'             
     e(  5 -  5) =     -5.10777  eV     1   --> A'             
     e(  6 -  6) =     -5.01840  eV     1   --> A'             
     e(  7 -  7) =     -4.38322  eV     1   --> A''            
     e(  8 -  8) =     -4.32098  eV     1   --> A''            
     e(  9 -  9) =     -3.03603  eV     1   --> A'             
     e( 10 - 10) =      1.21341  eV     1   --> A'             
     e( 11 - 11) =      1.53822  eV     1   --> A'             
     e( 12 - 12) =      2.40758  eV     1   --> A'             
     e( 13 - 13) =      2.76919  eV     1   --> A'             
     e( 14 - 14) =      2.99367  eV     1   --> A''            
     e( 15 - 15) =      3.03631  eV     1   --> A'             
     e( 16 - 16) =      3.24069  eV     1   --> A'             
     e( 17 - 17) =      3.56208  eV     1   --> A'             
     e( 18 - 18) =      3.96540  eV     1   --> A'             
     e( 19 - 19) =      4.02476  eV     1   --> A''            
     e( 20 - 20) =      4.35208  eV     1   --> A'             

 **************************************************************************

 **************************************************************************

                    xk=(   0.13479,   0.00000,   0.00000  )

     Band symmetry, C_s (m)     point group:

     e(  1 -  1) =    -16.04157  eV     1   --> A'             
     e(  2 -  2) =    -15.93633  eV     1   --> A'             
     e(  3 -  3) =     -8.07946  eV     1   --> A'             
     e(  4 -  4) =     -6.05739  eV     1   --> A'             
     e(  5 -  5) =     -4.92659  eV     1   --> A'             
     e(  6 -  6) =     -4.84696  eV     1   --> A'             
     e(  7 -  7) =     -4.33638  eV     1   --> A''            
     e(  8 -  8) =     -4.27643  eV     1   --> A''            
     e(  9 -  9) =     -3.05623  eV     1   --> A'             
     e( 10 - 10) =      1.10184  eV     1   --> A'             
     e( 11 - 11) =      1.63103  eV     1   --> A'             
     e( 12 - 12) =      2.31283  eV     1   --> A'             
     e( 13 - 13) =      2.78730  eV     1   --> A'             
     e( 14 - 14) =      2.93312  eV     1   --> A''            
     e( 15 - 15) =      2.98421  eV     1   --> A'             
     e( 16 - 16) =      3.23000  eV     1   --> A'             
     e( 17 - 17) =      3.50921  eV     1   --> A'             
     e( 18 - 18) =      3.89027  eV     1   --> A'             
     e( 19 - 19) =      3.89602  eV     1   --> A''            
     e( 20 - 20) =      4.34940  eV     1   --> A'             

 **************************************************************************

 **************************************************************************

                    xk=(   0.11554,   0.00000,   0.00000  )

     Band symmetry, C_s (m)     point group:

     e(  1 -  1) =    -16.07308  eV     1   --> A'             
     e(  2 -  2) =    -15.96661  eV     1   --> A'             
     e(  3 -  3) =     -8.11009  eV     1   --> A'             
     e(  4 -  4) =     -6.07287  eV     1   --> A'             
     e(  5 -  5) =     -4.75315  eV     1   --> A'             
     e(  6 -  6) =     -4.67875  eV     1   --> A'             
     e(  7 -  7) =     -4.29374  eV     1   --> A''            
     e(  8 -  8) =     -4.23593  eV     1   --> A''            
     e(  9 -  9) =     -3.07802  eV     1   --> A'             
     e( 10 - 10) =      0.97934  eV     1   --> A'             
     e( 11 - 11) =      1.64371  eV     1   --> A'             
     e( 12 - 12) =      2.29007  eV     1   --> A'             
     e( 13 - 13) =      2.78680  eV     1   --> A'             
     e( 14 - 14) =      2.87271  eV     1   --> A''            
     e( 15 - 15) =      2.93840  eV     1   --> A'             
     e( 16 - 16) =      3.24534  eV     1   --> A'             
     e( 17 - 17) =      3.46224  eV     1   --> A'             
     e( 18 - 18) =      3.78090  eV     1   --> A''            
     e( 19 - 19) =      3.82744  eV     1   --> A'             
     e( 20 - 20) =      4.35247  eV     1   --> A'             

 **************************************************************************

 **************************************************************************

                    xk=(   0.09628,   0.00000,   0.00000  )

     Band symmetry, C_s (m)     point group:

     e(  1 -  1) =    -16.10001  eV     1   --> A'             
     e(  2 -  2) =    -15.99251  eV     1   --> A'             
     e(  3 -  3) =     -8.13698  eV     1   --> A'             
     e(  4 -  4) =     -6.08902  eV     1   --> A'             
     e(  5 -  5) =     -4.59177  eV     1   --> A'             
     e(  6 -  6) =     -4.52115  eV     1   --> A'             
     e(  7 -  7) =     -4.25606  eV     1   --> A''            
     e(  8 -  8) =     -4.20021  eV     1   --> A''            
     e(  9 -  9) =     -3.10090  eV     1   --> A'             
     e( 10 - 10) =      0.85506  eV     1   --> A'             
     e( 11 - 11) =      1.57874  eV     1   --> A'             
     e( 12 - 12) =      2.34400  eV     1   --> A'             
     e( 13 - 13) =      2.77009  eV     1   --> A'             
     e( 14 - 14) =      2.81573  eV     1   --> A''            
     e( 15 - 15) =      2.89831  eV     1   --> A'             
     e( 16 - 16) =      3.28351  eV     1   --> A'             
     e( 17 - 17) =      3.42111  eV     1   --> A'             
     e( 18 - 18) =      3.68092  eV     1   --> A''            
     e( 19 - 19) =      3.77490  eV     1   --> A'             
     e( 20 - 20) =      4.35747  eV     1   --> A'             

 **************************************************************************

 **************************************************************************

                    xk=(   0.07703,   0.00000,   0.00000  )

     Band symmetry, C_s (m)     point group:

     e(  1 -  1) =    -16.12223  eV     1   --> A'             
     e(  2 -  2) =    -16.01388  eV     1   --> A'             
     e(  3 -  3) =     -8.15960  eV     1   --> A'             
     e(  4 -  4) =     -6.10387  eV     1   --> A'             
     e(  5 -  5) =     -4.44724  eV     1   --> A'             
     e(  6 -  6) =     -4.38060  eV     1   --> A'             
     e(  7 -  7) =     -4.22409  eV     1   --> A''            
     e(  8 -  8) =     -4.16992  eV     1   --> A''            
     e(  9 -  9) =     -3.12414  eV     1   --> A'             
     e( 10 - 10) =      0.73789  eV     1   --> A'             
     e( 11 - 11) =      1.48081  eV     1   --> A'             
     e( 12 - 12) =      2.43401  eV     1   --> A'             
     e( 13 - 13) =      2.74587  eV     1   --> A'             
     e( 14 - 14) =      2.76508  eV     1   --> A''            
     e( 15 - 15) =      2.86375  eV     1   --> A'             
     e( 16 - 16) =      3.33357  eV     1   --> A'             
     e( 17 - 17) =      3.38602  eV     1   --> A'             
     e( 18 - 18) =      3.59737  eV     1   --> A''            
     e( 19 - 19) =      3.73119  eV     1   --> A'             
     e( 20 - 20) =      4.36233  eV     1   --> A'             

 **************************************************************************

 **************************************************************************

                    xk=(   0.05777,   0.00000,   0.00000  )

     Band symmetry, C_s (m)     point group:

     e(  1 -  1) =    -16.13962  eV     1   --> A'             
     e(  2 -  2) =    -16.03062  eV     1   --> A'             
     e(  3 -  3) =     -8.17754  eV     1   --> A'             
     e(  4 -  4) =     -6.11628  eV     1   --> A'             
     e(  5 -  5) =     -4.32494  eV     1   --> A'             
     e(  6 -  6) =     -4.26308  eV     1   --> A'             
     e(  7 -  7) =     -4.19846  eV     1   --> A''            
     e(  8 -  8) =     -4.14568  eV     1   --> A''            
     e(  9 -  9) =     -3.14645  eV     1   --> A'             
     e( 10 - 10) =      0.63612  eV     1   --> A'             
     e( 11 - 11) =      1.38433  eV     1   --> A'             
     e( 12 - 12) =      2.52786  eV     1   --> A'             
     e( 13 - 13) =      2.72176  eV     1   --> A'             
     e( 14 - 14) =      2.72317  eV     1   --> A''            
     e( 15 - 15) =      2.83434  eV     1   --> A'             
     e( 16 - 16) =      3.35738  eV     1   --> A'             
     e( 17 - 17) =      3.38492  eV     1   --> A'             
     e( 18 - 18) =      3.53129  eV     1   --> A''            
     e( 19 - 19) =      3.69537  eV     1   --> A'             
     e( 20 - 20) =      4.36617  eV     1   --> A'             

 **************************************************************************

 **************************************************************************

                    xk=(   0.03851,   0.00000,   0.00000  )

     Band symmetry, C_s (m)     point group:

     e(  1 -  1) =    -16.15210  eV     1   --> A'             
     e(  2 -  2) =    -16.04263  eV     1   --> A'             
     e(  3 -  3) =     -8.19055  eV     1   --> A'             
     e(  4 -  4) =     -6.12553  eV     1   --> A'             
     e(  5 -  5) =     -4.23085  eV     1   --> A'             
     e(  6 -  6) =     -4.17974  eV     1   --> A''            
     e(  7 -  7) =     -4.17420  eV     1   --> A'             
     e(  8 -  8) =     -4.12798  eV     1   --> A''            
     e(  9 -  9) =     -3.16575  eV     1   --> A'             
     e( 10 - 10) =      0.55718  eV     1   --> A'             
     e( 11 - 11) =      1.30675  eV     1   --> A'             
     e( 12 - 12) =      2.60906  eV     1   --> A'             
     e( 13 - 13) =      2.69188  eV     1   --> A''            
     e( 14 - 14) =      2.70233  eV     1   --> A'             
     e( 15 - 15) =      2.80924  eV     1   --> A'             
     e( 16 - 16) =      3.33580  eV     1   --> A'             
     e( 17 - 17) =      3.42956  eV     1   --> A'             
     e( 18 - 18) =      3.48349  eV     1   --> A''            
     e( 19 - 19) =      3.66715  eV     1   --> A'             
     e( 20 - 20) =      4.36880  eV     1   --> A'             

 **************************************************************************

 **************************************************************************

                    xk=(   0.01926,   0.00000,   0.00000  )

     Band symmetry, C_s (m)     point group:

     e(  1 -  1) =    -16.15962  eV     1   --> A'             
     e(  2 -  2) =    -16.04986  eV     1   --> A'             
     e(  3 -  3) =     -8.19842  eV     1   --> A'             
     e(  4 -  4) =     -6.13123  eV     1   --> A'             
     e(  5 -  5) =     -4.17105  eV     1   --> A'             
     e(  6 -  6) =     -4.16833  eV     1   --> A''            
     e(  7 -  7) =     -4.11868  eV     1   --> A'             
     e(  8 -  8) =     -4.11721  eV     1   --> A''            
     e(  9 -  9) =     -3.17920  eV     1   --> A'             
     e( 10 - 10) =      0.50712  eV     1   --> A'             
     e( 11 - 11) =      1.25712  eV     1   --> A'             
     e( 12 - 12) =      2.66801  eV     1   --> A'             
     e( 13 - 13) =      2.67258  eV     1   --> A''            
     e( 14 - 14) =      2.68994  eV     1   --> A'             
     e( 15 - 15) =      2.78799  eV     1   --> A'             
     e( 16 - 16) =      3.32219  eV     1   --> A'             
     e( 17 - 17) =      3.45457  eV     1   --> A''            
     e( 18 - 18) =      3.46094  eV     1   --> A'             
     e( 19 - 19) =      3.64768  eV     1   --> A'             
     e( 20 - 20) =      4.37029  eV     1   --> A'             

 **************************************************************************

 **************************************************************************

                    xk=(   0.00000,   0.00000,   0.00000  )

     Band symmetry, C_s (m)     point group:

     e(  1 -  1) =    -16.16213  eV     1   --> A'             
     e(  2 -  2) =    -16.05228  eV     1   --> A'             
     e(  3 -  3) =     -8.20105  eV     1   --> A'             
     e(  4 -  4) =     -6.13315  eV     1   --> A'             
     e(  5 -  5) =     -4.16449  eV     1   --> A''            
     e(  6 -  6) =     -4.15047  eV     1   --> A'             
     e(  7 -  7) =     -4.11359  eV     1   --> A''            
     e(  8 -  8) =     -4.09979  eV     1   --> A'             
     e(  9 -  9) =     -3.18407  eV     1   --> A'             
     e( 10 - 10) =      0.48996  eV     1   --> A'             
     e( 11 - 11) =      1.24009  eV     1   --> A'             
     e( 12 - 12) =      2.66605  eV     1   --> A''            
     e( 13 - 13) =      2.68571  eV     1   --> A'             
     e( 14 - 14) =      2.69229  eV     1   --> A'             
     e( 15 - 15) =      2.77698  eV     1   --> A'             
     e( 16 - 16) =      3.31751  eV     1   --> A'             
     e( 17 - 17) =      3.44489  eV     1   --> A''            
     e( 18 - 18) =      3.47258  eV     1   --> A'             
     e( 19 - 19) =      3.64036  eV     1   --> A'             
     e( 20 - 20) =      4.37077  eV     1   --> A'             

 **************************************************************************
 
     BANDS        :      4.40s CPU      6.72s WALL

 
   This run was terminated on:  14:57:27  16Jun2023            

=------------------------------------------------------------------------------=
   JOB DONE.
=------------------------------------------------------------------------------=
