
     Program PWSCF v.7.0 starts on 16Jun2023 at 14:55:49 

     This program is part of the open-source Quantum ESPRESSO suite
     for quantum simulation of materials; please cite
         "P. Giannozzi et al., J. Phys.:Condens. Matter 21 395502 (2009);
         "P. Giannozzi et al., J. Phys.:Condens. Matter 29 465901 (2017);
         "P. Giannozzi et al., J. Chem. Phys. 152 154105 (2020);
          URL http://www.quantum-espresso.org", 
     in publications or presentations arising from this work. More details at
     http://www.quantum-espresso.org/quote

     Parallel version (MPI), running on    22 processors

     MPI processes distributed on     1 nodes
     R & G space division:  proc/nbgrp/npool/nimage =      22
     8278 MiB available memory on the printing compute node when the environment starts
 
     Waiting for input...
     Reading input from standard input

     Current dimensions of program PWSCF are:
     Max number of different atomic species (ntypx) = 10
     Max number of k-points (npk) =  40000
     Max angular momentum in pseudopotentials (lmaxx) =  4
     Message from routine volume:
     axis vectors are left-handed

     Atomic positions and unit cell read from directory:
     ./work/Al2S2.save/
     Atomic positions from file used, from input discarded
 
     Message from routine volume:
     axis vectors are left-handed
     file Al.pbe-n-kjpaw_psl.1.0.0.UPF: wavefunction(s)  3S 3P renormalized
     file S.pbe-n-kjpaw_psl.1.0.0.UPF: wavefunction(s)  3S 3P renormalized
     Message from routine setup:
     using ibrav=0 with symmetry is DISCOURAGED, use correct ibrav instead

     Subspace diagonalization in iterative solution of the eigenvalue problem:
     a serial algorithm will be used

 
     Parallelization info
     --------------------
     sticks:   dense  smooth     PW     G-vecs:    dense   smooth      PW
     Min          34      34      9                 5348     5348     817
     Max          36      36     10                 5359     5359     858
     Sum         757     757    215               117733   117733   18403
 
     Using Slab Decomposition
 


     bravais-lattice index     =            0
     lattice parameter (alat)  =       6.7653  a.u.
     unit-cell volume          =    1874.8147 (a.u.)^3
     number of atoms/cell      =            4
     number of atomic types    =            2
     number of electrons       =        18.00
     number of Kohn-Sham states=           20
     kinetic-energy cutoff     =      60.0000  Ry
     charge density cutoff     =     240.0000  Ry
     Exchange-correlation= SLA  PW   PBX  PBC
                           (   1   4   3   4   0   0   0)

     celldm(1)=   6.765337  celldm(2)=   0.000000  celldm(3)=   0.000000
     celldm(4)=   0.000000  celldm(5)=   0.000000  celldm(6)=   0.000000

     crystal axes: (cart. coord. in units of alat)
               a(1) = (   0.865515   0.500882   0.000000 )  
               a(2) = (   0.865515  -0.500882   0.000000 )  
               a(3) = (   0.000000   0.000000   6.983119 )  

     reciprocal axes: (cart. coord. in units 2 pi/alat)
               b(1) = (  0.577691  0.998238  0.000000 )  
               b(2) = (  0.577691 -0.998238  0.000000 )  
               b(3) = (  0.000000  0.000000  0.143202 )  


     PseudoPot. # 1 for Al read from file:
     /home/mainadmin/research/danu/pseudo/Al.pbe-n-kjpaw_psl.1.0.0.UPF
     MD5 check sum: 502b6b27b9c6270cab5dd1084b96fa6d
     Pseudo is Projector augmented-wave + core cor, Zval =  3.0
     Generated using &quot;atomic&quot; code by A. Dal Corso  v.6.3
     Shape of augmentation charge: PSQ
     Using radial grid of 1135 points,  6 beta functions with: 
                l(1) =   0
                l(2) =   0
                l(3) =   1
                l(4) =   1
                l(5) =   2
                l(6) =   2
     Q(r) pseudized with 0 coefficients 


     PseudoPot. # 2 for S  read from file:
     /home/mainadmin/research/danu/pseudo/S.pbe-n-kjpaw_psl.1.0.0.UPF
     MD5 check sum: fb45dfebcf3e72a4e1bd4a866ec2e262
     Pseudo is Projector augmented-wave + core cor, Zval =  6.0
     Generated using &quot;atomic&quot; code by A. Dal Corso  v.6.3
     Shape of augmentation charge: PSQ
     Using radial grid of 1151 points,  6 beta functions with: 
                l(1) =   0
                l(2) =   0
                l(3) =   1
                l(4) =   1
                l(5) =   2
                l(6) =   2
     Q(r) pseudized with 0 coefficients 


     atomic species   valence    mass     pseudopotential
        Al             3.00    26.98100     Al( 1.00)
        S              6.00    32.06500     S ( 1.00)

      2 Sym. Ops. (no inversion) found


                                    s                        frac. trans.

      isym =  1     identity                                     

 cryst.   s( 1) = (     1          0          0      )
                  (     0          1          0      )
                  (     0          0          1      )

 cart.    s( 1) = (  1.0000000  0.0000000  0.0000000 )
                  (  0.0000000  1.0000000  0.0000000 )
                  (  0.0000000  0.0000000  1.0000000 )


      isym =  2     inv. 180 deg rotation - cart. axis [0,1,0]   

 cryst.   s( 2) = (     0          1          0      )
                  (     1          0          0      )
                  (     0          0          1      )

 cart.    s( 2) = (  1.0000000  0.0000000  0.0000000 )
                  (  0.0000000 -1.0000000  0.0000000 )
                  (  0.0000000  0.0000000  1.0000000 )


   Cartesian axes

     site n.     atom                  positions (alat units)
         1           S   tau(   1) = (   1.1540890   0.0000000   2.8398609  )
         2           Al  tau(   2) = (   0.5770117   0.0000000   3.1380690  )
         3           Al  tau(   3) = (   0.5767956   0.0000000   3.8632972  )
         4           S   tau(   4) = (   1.1541649   0.0000000   4.1615395  )

   Crystallographic axes

     site n.     atom                  positions (cryst. coord.)
         1           S   tau(   1) = (  0.6667063  0.6667063  0.4066751  )
         2           Al  tau(   2) = (  0.3333342  0.3333342  0.4493793  )
         3           Al  tau(   3) = (  0.3332094  0.3332094  0.5532338  )
         4           S   tau(   4) = (  0.6667501  0.6667501  0.5959428  )

     number of k points=    91
                       cart. coord. in units 2pi/alat
        k(    1) = (   0.0000000   0.0000000   0.0000000), wk =   0.0219780
        k(    2) = (   0.0192564   0.0110651   0.0000000), wk =   0.0219780
        k(    3) = (   0.0385127   0.0221303   0.0000000), wk =   0.0219780
        k(    4) = (   0.0577691   0.0331954   0.0000000), wk =   0.0219780
        k(    5) = (   0.0770254   0.0442605   0.0000000), wk =   0.0219780
        k(    6) = (   0.0962818   0.0553257   0.0000000), wk =   0.0219780
        k(    7) = (   0.1155381   0.0663908   0.0000000), wk =   0.0219780
        k(    8) = (   0.1347945   0.0774560   0.0000000), wk =   0.0219780
        k(    9) = (   0.1540508   0.0885211   0.0000000), wk =   0.0219780
        k(   10) = (   0.1733072   0.0995862   0.0000000), wk =   0.0219780
        k(   11) = (   0.1925635   0.1106514   0.0000000), wk =   0.0219780
        k(   12) = (   0.2118199   0.1217165   0.0000000), wk =   0.0219780
        k(   13) = (   0.2310762   0.1327816   0.0000000), wk =   0.0219780
        k(   14) = (   0.2503326   0.1438468   0.0000000), wk =   0.0219780
        k(   15) = (   0.2695889   0.1549119   0.0000000), wk =   0.0219780
        k(   16) = (   0.2888453   0.1659771   0.0000000), wk =   0.0219780
        k(   17) = (   0.3081016   0.1770422   0.0000000), wk =   0.0219780
        k(   18) = (   0.3273580   0.1881073   0.0000000), wk =   0.0219780
        k(   19) = (   0.3466143   0.1991725   0.0000000), wk =   0.0219780
        k(   20) = (   0.3658707   0.2102376   0.0000000), wk =   0.0219780
        k(   21) = (   0.3851270   0.2213027   0.0000000), wk =   0.0219780
        k(   22) = (   0.4043834   0.2323679   0.0000000), wk =   0.0219780
        k(   23) = (   0.4236397   0.2434330   0.0000000), wk =   0.0219780
        k(   24) = (   0.4428961   0.2544982   0.0000000), wk =   0.0219780
        k(   25) = (   0.4621524   0.2655633   0.0000000), wk =   0.0219780
        k(   26) = (   0.4814088   0.2766284   0.0000000), wk =   0.0219780
        k(   27) = (   0.5006651   0.2876936   0.0000000), wk =   0.0219780
        k(   28) = (   0.5199215   0.2987587   0.0000000), wk =   0.0219780
        k(   29) = (   0.5391778   0.3098238   0.0000000), wk =   0.0219780
        k(   30) = (   0.5584342   0.3208890   0.0000000), wk =   0.0219780
        k(   31) = (   0.5776905   0.3319541   0.0000000), wk =   0.0219780
        k(   32) = (   0.5776905   0.3208890   0.0000000), wk =   0.0219780
        k(   33) = (   0.5776905   0.3098238   0.0000000), wk =   0.0219780
        k(   34) = (   0.5776905   0.2987587   0.0000000), wk =   0.0219780
        k(   35) = (   0.5776905   0.2876936   0.0000000), wk =   0.0219780
        k(   36) = (   0.5776905   0.2766284   0.0000000), wk =   0.0219780
        k(   37) = (   0.5776905   0.2655633   0.0000000), wk =   0.0219780
        k(   38) = (   0.5776905   0.2544982   0.0000000), wk =   0.0219780
        k(   39) = (   0.5776905   0.2434330   0.0000000), wk =   0.0219780
        k(   40) = (   0.5776905   0.2323679   0.0000000), wk =   0.0219780
        k(   41) = (   0.5776905   0.2213027   0.0000000), wk =   0.0219780
        k(   42) = (   0.5776905   0.2102376   0.0000000), wk =   0.0219780
        k(   43) = (   0.5776905   0.1991725   0.0000000), wk =   0.0219780
        k(   44) = (   0.5776905   0.1881073   0.0000000), wk =   0.0219780
        k(   45) = (   0.5776905   0.1770422   0.0000000), wk =   0.0219780
        k(   46) = (   0.5776905   0.1659771   0.0000000), wk =   0.0219780
        k(   47) = (   0.5776905   0.1549119   0.0000000), wk =   0.0219780
        k(   48) = (   0.5776905   0.1438468   0.0000000), wk =   0.0219780
        k(   49) = (   0.5776905   0.1327816   0.0000000), wk =   0.0219780
        k(   50) = (   0.5776905   0.1217165   0.0000000), wk =   0.0219780
        k(   51) = (   0.5776905   0.1106514   0.0000000), wk =   0.0219780
        k(   52) = (   0.5776905   0.0995862   0.0000000), wk =   0.0219780
        k(   53) = (   0.5776905   0.0885211   0.0000000), wk =   0.0219780
        k(   54) = (   0.5776905   0.0774560   0.0000000), wk =   0.0219780
        k(   55) = (   0.5776905   0.0663908   0.0000000), wk =   0.0219780
        k(   56) = (   0.5776905   0.0553257   0.0000000), wk =   0.0219780
        k(   57) = (   0.5776905   0.0442605   0.0000000), wk =   0.0219780
        k(   58) = (   0.5776905   0.0331954   0.0000000), wk =   0.0219780
        k(   59) = (   0.5776905   0.0221303   0.0000000), wk =   0.0219780
        k(   60) = (   0.5776905   0.0110651   0.0000000), wk =   0.0219780
        k(   61) = (   0.5776905   0.0000000   0.0000000), wk =   0.0219780
        k(   62) = (   0.5584342   0.0000000   0.0000000), wk =   0.0219780
        k(   63) = (   0.5391778   0.0000000   0.0000000), wk =   0.0219780
        k(   64) = (   0.5199215   0.0000000   0.0000000), wk =   0.0219780
        k(   65) = (   0.5006651   0.0000000   0.0000000), wk =   0.0219780
        k(   66) = (   0.4814088   0.0000000   0.0000000), wk =   0.0219780
        k(   67) = (   0.4621524   0.0000000   0.0000000), wk =   0.0219780
        k(   68) = (   0.4428961   0.0000000   0.0000000), wk =   0.0219780
        k(   69) = (   0.4236397   0.0000000   0.0000000), wk =   0.0219780
        k(   70) = (   0.4043834   0.0000000   0.0000000), wk =   0.0219780
        k(   71) = (   0.3851270   0.0000000   0.0000000), wk =   0.0219780
        k(   72) = (   0.3658707   0.0000000   0.0000000), wk =   0.0219780
        k(   73) = (   0.3466143   0.0000000   0.0000000), wk =   0.0219780
        k(   74) = (   0.3273580   0.0000000   0.0000000), wk =   0.0219780
        k(   75) = (   0.3081016   0.0000000   0.0000000), wk =   0.0219780
        k(   76) = (   0.2888453   0.0000000   0.0000000), wk =   0.0219780
        k(   77) = (   0.2695889   0.0000000   0.0000000), wk =   0.0219780
        k(   78) = (   0.2503326   0.0000000   0.0000000), wk =   0.0219780
        k(   79) = (   0.2310762   0.0000000   0.0000000), wk =   0.0219780
        k(   80) = (   0.2118199   0.0000000   0.0000000), wk =   0.0219780
        k(   81) = (   0.1925635   0.0000000   0.0000000), wk =   0.0219780
        k(   82) = (   0.1733072   0.0000000   0.0000000), wk =   0.0219780
        k(   83) = (   0.1540508   0.0000000   0.0000000), wk =   0.0219780
        k(   84) = (   0.1347945   0.0000000   0.0000000), wk =   0.0219780
        k(   85) = (   0.1155381   0.0000000   0.0000000), wk =   0.0219780
        k(   86) = (   0.0962818   0.0000000   0.0000000), wk =   0.0219780
        k(   87) = (   0.0770254   0.0000000   0.0000000), wk =   0.0219780
        k(   88) = (   0.0577691   0.0000000   0.0000000), wk =   0.0219780
        k(   89) = (   0.0385127   0.0000000   0.0000000), wk =   0.0219780
        k(   90) = (   0.0192564   0.0000000   0.0000000), wk =   0.0219780
        k(   91) = (   0.0000000   0.0000000   0.0000000), wk =   0.0219780

                       cryst. coord.
        k(    1) = (   0.0000000   0.0000000   0.0000000), wk =   0.0219780
        k(    2) = (   0.0222090   0.0111243   0.0000000), wk =   0.0219780
        k(    3) = (   0.0444180   0.0222487   0.0000000), wk =   0.0219780
        k(    4) = (   0.0666270   0.0333730   0.0000000), wk =   0.0219780
        k(    5) = (   0.0888360   0.0444973   0.0000000), wk =   0.0219780
        k(    6) = (   0.1110450   0.0556217   0.0000000), wk =   0.0219780
        k(    7) = (   0.1332540   0.0667460   0.0000000), wk =   0.0219780
        k(    8) = (   0.1554630   0.0778703   0.0000000), wk =   0.0219780
        k(    9) = (   0.1776720   0.0889947   0.0000000), wk =   0.0219780
        k(   10) = (   0.1998810   0.1001190   0.0000000), wk =   0.0219780
        k(   11) = (   0.2220900   0.1112433   0.0000000), wk =   0.0219780
        k(   12) = (   0.2442990   0.1223677   0.0000000), wk =   0.0219780
        k(   13) = (   0.2665080   0.1334920   0.0000000), wk =   0.0219780
        k(   14) = (   0.2887170   0.1446163   0.0000000), wk =   0.0219780
        k(   15) = (   0.3109260   0.1557407   0.0000000), wk =   0.0219780
        k(   16) = (   0.3331350   0.1668650   0.0000000), wk =   0.0219780
        k(   17) = (   0.3553440   0.1779893   0.0000000), wk =   0.0219780
        k(   18) = (   0.3775530   0.1891137   0.0000000), wk =   0.0219780
        k(   19) = (   0.3997620   0.2002380   0.0000000), wk =   0.0219780
        k(   20) = (   0.4219710   0.2113623   0.0000000), wk =   0.0219780
        k(   21) = (   0.4441800   0.2224867   0.0000000), wk =   0.0219780
        k(   22) = (   0.4663890   0.2336110   0.0000000), wk =   0.0219780
        k(   23) = (   0.4885980   0.2447353   0.0000000), wk =   0.0219780
        k(   24) = (   0.5108070   0.2558597   0.0000000), wk =   0.0219780
        k(   25) = (   0.5330160   0.2669840   0.0000000), wk =   0.0219780
        k(   26) = (   0.5552250   0.2781083   0.0000000), wk =   0.0219780
        k(   27) = (   0.5774340   0.2892327   0.0000000), wk =   0.0219780
        k(   28) = (   0.5996430   0.3003570   0.0000000), wk =   0.0219780
        k(   29) = (   0.6218520   0.3114813   0.0000000), wk =   0.0219780
        k(   30) = (   0.6440610   0.3226057   0.0000000), wk =   0.0219780
        k(   31) = (   0.6662700   0.3337300   0.0000000), wk =   0.0219780
        k(   32) = (   0.6607277   0.3392723   0.0000000), wk =   0.0219780
        k(   33) = (   0.6551853   0.3448147   0.0000000), wk =   0.0219780
        k(   34) = (   0.6496430   0.3503570   0.0000000), wk =   0.0219780
        k(   35) = (   0.6441007   0.3558993   0.0000000), wk =   0.0219780
        k(   36) = (   0.6385583   0.3614417   0.0000000), wk =   0.0219780
        k(   37) = (   0.6330160   0.3669840   0.0000000), wk =   0.0219780
        k(   38) = (   0.6274737   0.3725263   0.0000000), wk =   0.0219780
        k(   39) = (   0.6219313   0.3780687   0.0000000), wk =   0.0219780
        k(   40) = (   0.6163890   0.3836110   0.0000000), wk =   0.0219780
        k(   41) = (   0.6108467   0.3891533   0.0000000), wk =   0.0219780
        k(   42) = (   0.6053043   0.3946957   0.0000000), wk =   0.0219780
        k(   43) = (   0.5997620   0.4002380   0.0000000), wk =   0.0219780
        k(   44) = (   0.5942197   0.4057803   0.0000000), wk =   0.0219780
        k(   45) = (   0.5886773   0.4113227   0.0000000), wk =   0.0219780
        k(   46) = (   0.5831350   0.4168650   0.0000000), wk =   0.0219780
        k(   47) = (   0.5775927   0.4224073   0.0000000), wk =   0.0219780
        k(   48) = (   0.5720503   0.4279497   0.0000000), wk =   0.0219780
        k(   49) = (   0.5665080   0.4334920   0.0000000), wk =   0.0219780
        k(   50) = (   0.5609657   0.4390343   0.0000000), wk =   0.0219780
        k(   51) = (   0.5554233   0.4445767   0.0000000), wk =   0.0219780
        k(   52) = (   0.5498810   0.4501190   0.0000000), wk =   0.0219780
        k(   53) = (   0.5443387   0.4556613   0.0000000), wk =   0.0219780
        k(   54) = (   0.5387963   0.4612037   0.0000000), wk =   0.0219780
        k(   55) = (   0.5332540   0.4667460   0.0000000), wk =   0.0219780
        k(   56) = (   0.5277117   0.4722883   0.0000000), wk =   0.0219780
        k(   57) = (   0.5221693   0.4778307   0.0000000), wk =   0.0219780
        k(   58) = (   0.5166270   0.4833730   0.0000000), wk =   0.0219780
        k(   59) = (   0.5110847   0.4889153   0.0000000), wk =   0.0219780
        k(   60) = (   0.5055423   0.4944577   0.0000000), wk =   0.0219780
        k(   61) = (   0.5000000   0.5000000   0.0000000), wk =   0.0219780
        k(   62) = (   0.4833333   0.4833333   0.0000000), wk =   0.0219780
        k(   63) = (   0.4666667   0.4666667   0.0000000), wk =   0.0219780
        k(   64) = (   0.4500000   0.4500000   0.0000000), wk =   0.0219780
        k(   65) = (   0.4333333   0.4333333   0.0000000), wk =   0.0219780
        k(   66) = (   0.4166667   0.4166667   0.0000000), wk =   0.0219780
        k(   67) = (   0.4000000   0.4000000   0.0000000), wk =   0.0219780
        k(   68) = (   0.3833333   0.3833333   0.0000000), wk =   0.0219780
        k(   69) = (   0.3666667   0.3666667   0.0000000), wk =   0.0219780
        k(   70) = (   0.3500000   0.3500000   0.0000000), wk =   0.0219780
        k(   71) = (   0.3333333   0.3333333   0.0000000), wk =   0.0219780
        k(   72) = (   0.3166667   0.3166667   0.0000000), wk =   0.0219780
        k(   73) = (   0.3000000   0.3000000   0.0000000), wk =   0.0219780
        k(   74) = (   0.2833333   0.2833333   0.0000000), wk =   0.0219780
        k(   75) = (   0.2666667   0.2666667   0.0000000), wk =   0.0219780
        k(   76) = (   0.2500000   0.2500000   0.0000000), wk =   0.0219780
        k(   77) = (   0.2333333   0.2333333   0.0000000), wk =   0.0219780
        k(   78) = (   0.2166667   0.2166667   0.0000000), wk =   0.0219780
        k(   79) = (   0.2000000   0.2000000   0.0000000), wk =   0.0219780
        k(   80) = (   0.1833333   0.1833333   0.0000000), wk =   0.0219780
        k(   81) = (   0.1666667   0.1666667   0.0000000), wk =   0.0219780
        k(   82) = (   0.1500000   0.1500000   0.0000000), wk =   0.0219780
        k(   83) = (   0.1333333   0.1333333   0.0000000), wk =   0.0219780
        k(   84) = (   0.1166667   0.1166667   0.0000000), wk =   0.0219780
        k(   85) = (   0.1000000   0.1000000   0.0000000), wk =   0.0219780
        k(   86) = (   0.0833333   0.0833333   0.0000000), wk =   0.0219780
        k(   87) = (   0.0666667   0.0666667   0.0000000), wk =   0.0219780
        k(   88) = (   0.0500000   0.0500000   0.0000000), wk =   0.0219780
        k(   89) = (   0.0333333   0.0333333   0.0000000), wk =   0.0219780
        k(   90) = (   0.0166667   0.0166667   0.0000000), wk =   0.0219780
        k(   91) = (   0.0000000   0.0000000   0.0000000), wk =   0.0219780

     Dense  grid:   117733 G-vectors     FFT dimensions: (  36,  36, 240)

     Dynamical RAM for                 wfc:       0.20 MB

     Dynamical RAM for     wfc (w. buffer):       0.20 MB

     Dynamical RAM for           str. fact:       0.16 MB

     Dynamical RAM for           local pot:       0.00 MB

     Dynamical RAM for          nlocal pot:       0.73 MB

     Dynamical RAM for                qrad:       2.49 MB

     Dynamical RAM for          rho,v,vnew:       0.57 MB

     Dynamical RAM for           G-vectors:       0.35 MB

     Dynamical RAM for          h,s,v(r/c):       0.07 MB

     Dynamical RAM for          <psi|beta>:       0.02 MB

     Dynamical RAM for                 psi:       0.41 MB

     Dynamical RAM for                hpsi:       0.41 MB

     Dynamical RAM for                spsi:       0.41 MB

     Dynamical RAM for      wfcinit/wfcrot:       0.42 MB

     Dynamical RAM for           addusdens:      15.36 MB

     Estimated static dynamical RAM per process >       5.30 MB

     Estimated max dynamical RAM per process >      20.66 MB

     Estimated total dynamical RAM >     454.42 MB

     The potential is recalculated from file :
     ./work/Al2S2.save/charge-density


     negative rho (up, down):  1.711E-04 0.000E+00
     Starting wfcs are   16 randomized atomic wfcs +    4 random wfcs
     Checking if some PAW data can be deallocated... 
       PAW data deallocated on   11 nodes for type:  1
       PAW data deallocated on   11 nodes for type:  2

     Band Structure Calculation
     Davidson diagonalization with overlap

     Computing kpt #:     1  of    91
     total cpu time spent up to now is        1.4 secs

     Computing kpt #:     2  of    91
     total cpu time spent up to now is        2.3 secs

     Computing kpt #:     3  of    91
     total cpu time spent up to now is        3.1 secs

     Computing kpt #:     4  of    91
     total cpu time spent up to now is        4.1 secs

     Computing kpt #:     5  of    91
     total cpu time spent up to now is        4.9 secs

     Computing kpt #:     6  of    91
     total cpu time spent up to now is        6.0 secs

     Computing kpt #:     7  of    91
     total cpu time spent up to now is        6.9 secs

     Computing kpt #:     8  of    91
     total cpu time spent up to now is        8.0 secs

     Computing kpt #:     9  of    91
     total cpu time spent up to now is        9.0 secs

     Computing kpt #:    10  of    91
     total cpu time spent up to now is       10.0 secs

     Computing kpt #:    11  of    91
     total cpu time spent up to now is       11.0 secs

     Computing kpt #:    12  of    91
     total cpu time spent up to now is       12.1 secs

     Computing kpt #:    13  of    91
     total cpu time spent up to now is       13.0 secs

     Computing kpt #:    14  of    91
     total cpu time spent up to now is       14.0 secs

     Computing kpt #:    15  of    91
     total cpu time spent up to now is       15.1 secs

     Computing kpt #:    16  of    91
     total cpu time spent up to now is       16.2 secs

     Computing kpt #:    17  of    91
     total cpu time spent up to now is       17.2 secs

     Computing kpt #:    18  of    91
     total cpu time spent up to now is       18.2 secs

     Computing kpt #:    19  of    91
     total cpu time spent up to now is       19.1 secs

     Computing kpt #:    20  of    91
     total cpu time spent up to now is       20.0 secs

     Computing kpt #:    21  of    91
     total cpu time spent up to now is       20.9 secs

     Computing kpt #:    22  of    91
     total cpu time spent up to now is       21.8 secs

     Computing kpt #:    23  of    91
     total cpu time spent up to now is       22.8 secs

     Computing kpt #:    24  of    91
     total cpu time spent up to now is       23.8 secs

     Computing kpt #:    25  of    91
     total cpu time spent up to now is       24.7 secs

     Computing kpt #:    26  of    91
     total cpu time spent up to now is       25.6 secs

     Computing kpt #:    27  of    91
     total cpu time spent up to now is       26.6 secs

     Computing kpt #:    28  of    91
     total cpu time spent up to now is       27.5 secs

     Computing kpt #:    29  of    91
     total cpu time spent up to now is       28.5 secs

     Computing kpt #:    30  of    91
     total cpu time spent up to now is       29.4 secs

     Computing kpt #:    31  of    91
     total cpu time spent up to now is       30.3 secs

     Computing kpt #:    32  of    91
     total cpu time spent up to now is       31.2 secs

     Computing kpt #:    33  of    91
     total cpu time spent up to now is       32.1 secs

     Computing kpt #:    34  of    91
     total cpu time spent up to now is       33.0 secs

     Computing kpt #:    35  of    91
     total cpu time spent up to now is       33.8 secs

     Computing kpt #:    36  of    91
     total cpu time spent up to now is       34.6 secs

     Computing kpt #:    37  of    91
     total cpu time spent up to now is       35.4 secs

     Computing kpt #:    38  of    91
     total cpu time spent up to now is       36.2 secs

     Computing kpt #:    39  of    91
     total cpu time spent up to now is       37.0 secs

     Computing kpt #:    40  of    91
     total cpu time spent up to now is       37.8 secs

     Computing kpt #:    41  of    91
     total cpu time spent up to now is       38.7 secs

     Computing kpt #:    42  of    91
     total cpu time spent up to now is       39.5 secs

     Computing kpt #:    43  of    91
     total cpu time spent up to now is       40.3 secs

     Computing kpt #:    44  of    91
     total cpu time spent up to now is       41.2 secs

     Computing kpt #:    45  of    91
     total cpu time spent up to now is       42.2 secs

     Computing kpt #:    46  of    91
     total cpu time spent up to now is       43.0 secs

     Computing kpt #:    47  of    91
     total cpu time spent up to now is       43.9 secs

     Computing kpt #:    48  of    91
     total cpu time spent up to now is       44.8 secs

     Computing kpt #:    49  of    91
     total cpu time spent up to now is       45.7 secs

     Computing kpt #:    50  of    91
     total cpu time spent up to now is       46.7 secs

     Computing kpt #:    51  of    91
     total cpu time spent up to now is       47.6 secs

     Computing kpt #:    52  of    91
     total cpu time spent up to now is       48.7 secs

     Computing kpt #:    53  of    91
     total cpu time spent up to now is       49.6 secs

     Computing kpt #:    54  of    91
     total cpu time spent up to now is       50.6 secs

     Computing kpt #:    55  of    91
     total cpu time spent up to now is       51.7 secs

     Computing kpt #:    56  of    91
     total cpu time spent up to now is       52.7 secs

     Computing kpt #:    57  of    91
     total cpu time spent up to now is       53.9 secs

     Computing kpt #:    58  of    91
     c_bands:  1 eigenvalues not converged
     total cpu time spent up to now is       55.0 secs

     Computing kpt #:    59  of    91
     total cpu time spent up to now is       56.0 secs

     Computing kpt #:    60  of    91
     total cpu time spent up to now is       57.1 secs

     Computing kpt #:    61  of    91
     c_bands:  1 eigenvalues not converged
     total cpu time spent up to now is       58.2 secs

     Computing kpt #:    62  of    91
     total cpu time spent up to now is       59.1 secs

     Computing kpt #:    63  of    91
     total cpu time spent up to now is       60.0 secs

     Computing kpt #:    64  of    91
     total cpu time spent up to now is       60.8 secs

     Computing kpt #:    65  of    91
     total cpu time spent up to now is       61.6 secs

     Computing kpt #:    66  of    91
     total cpu time spent up to now is       62.5 secs

     Computing kpt #:    67  of    91
     total cpu time spent up to now is       63.3 secs

     Computing kpt #:    68  of    91
     total cpu time spent up to now is       64.2 secs

     Computing kpt #:    69  of    91
     total cpu time spent up to now is       65.0 secs

     Computing kpt #:    70  of    91
     total cpu time spent up to now is       65.9 secs

     Computing kpt #:    71  of    91
     total cpu time spent up to now is       66.9 secs

     Computing kpt #:    72  of    91
     total cpu time spent up to now is       67.9 secs

     Computing kpt #:    73  of    91
     total cpu time spent up to now is       68.9 secs

     Computing kpt #:    74  of    91
     total cpu time spent up to now is       70.0 secs

     Computing kpt #:    75  of    91
     total cpu time spent up to now is       71.2 secs

     Computing kpt #:    76  of    91
     c_bands:  1 eigenvalues not converged
     total cpu time spent up to now is       72.5 secs

     Computing kpt #:    77  of    91
     total cpu time spent up to now is       73.6 secs

     Computing kpt #:    78  of    91
     total cpu time spent up to now is       74.8 secs

     Computing kpt #:    79  of    91
     total cpu time spent up to now is       76.1 secs

     Computing kpt #:    80  of    91
     total cpu time spent up to now is       77.1 secs

     Computing kpt #:    81  of    91
     total cpu time spent up to now is       78.0 secs

     Computing kpt #:    82  of    91
     total cpu time spent up to now is       78.9 secs

     Computing kpt #:    83  of    91
     total cpu time spent up to now is       79.8 secs

     Computing kpt #:    84  of    91
     total cpu time spent up to now is       80.8 secs

     Computing kpt #:    85  of    91
     total cpu time spent up to now is       81.7 secs

     Computing kpt #:    86  of    91
     total cpu time spent up to now is       82.6 secs

     Computing kpt #:    87  of    91
     total cpu time spent up to now is       83.4 secs

     Computing kpt #:    88  of    91
     total cpu time spent up to now is       84.3 secs

     Computing kpt #:    89  of    91
     total cpu time spent up to now is       85.1 secs

     Computing kpt #:    90  of    91
     total cpu time spent up to now is       85.9 secs

     Computing kpt #:    91  of    91
     total cpu time spent up to now is       86.8 secs

     ethr =  5.56E-11,  avg # of iterations = 69.1

     total cpu time spent up to now is       86.8 secs

     End of band structure calculation

          k = 0.0000 0.0000 0.0000 ( 14799 PWs)   bands (ev):

   -16.1621 -16.0523  -8.2011  -6.1331  -4.1645  -4.1505  -4.1136  -4.0998
    -3.1841   0.4900   1.2401   2.6661   2.6857   2.6923   2.7770   3.3175
     3.4449   3.4726   3.6404   4.3708

          k = 0.0193 0.0111 0.0000 ( 14784 PWs)   bands (ev):

   -16.1588 -16.0491  -8.1976  -6.1306  -4.1834  -4.1639  -4.1306  -4.1126
    -3.1776   0.5128   1.2628   2.6506   2.6853   2.6913   2.7905   3.3237
     3.4439   3.4713   3.6498   4.3701

          k = 0.0385 0.0221 0.0000 ( 14769 PWs)   bands (ev):

   -16.1488 -16.0395  -8.1871  -6.1231  -4.2603  -4.2021  -4.1807  -4.1288
    -3.1603   0.5789   1.3286   2.5777   2.7077   2.7090   2.8160   3.3416
     3.4093   3.5039   3.6749   4.3681

          k = 0.0578 0.0332 0.0000 ( 14779 PWs)   bands (ev):

   -16.1322 -16.0235  -8.1699  -6.1110  -4.3812  -4.3171  -4.2065  -4.1530
    -3.1364   0.6815   1.4304   2.4717   2.7330   2.7528   2.8470   3.3546
     3.3697   3.5617   3.7147   4.3647

          k = 0.0770 0.0443 0.0000 ( 14774 PWs)   bands (ev):

   -16.1092 -16.0013  -8.1463  -6.0951  -4.5348  -4.4660  -4.2425  -4.1868
    -3.1098   0.8116   1.5575   2.3430   2.7637   2.8120   2.8870   3.2928
     3.4070   3.6269   3.7802   4.3611

          k = 0.0963 0.0553 0.0000 ( 14775 PWs)   bands (ev):

   -16.0798 -15.9731  -8.1168  -6.0768  -4.7117  -4.6390  -4.2891  -4.2306
    -3.0829   0.9594   1.6958   2.2011   2.7927   2.8747   2.9462   3.2353
     3.4534   3.6776   3.8878   4.3614

          k = 0.1155 0.0664 0.0000 ( 14761 PWs)   bands (ev):

   -16.0443 -15.9390  -8.0821  -6.0585  -4.9038  -4.8263  -4.3467  -4.2843
    -3.0570   1.1160   1.8208   2.0650   2.8081   2.9246   3.0351   3.1982
     3.5100   3.7068   4.0314   4.3776

          k = 0.1348 0.0775 0.0000 ( 14773 PWs)   bands (ev):

   -16.0029 -15.8992  -8.0433  -6.0450  -5.1040  -5.0166  -4.4153  -4.3483
    -3.0328   1.2741   1.8214   2.0407   2.7969   2.9614   3.1419   3.1978
     3.5794   3.7139   4.1759   4.4439

          k = 0.1541 0.0885 0.0000 ( 14769 PWs)   bands (ev):

   -15.9559 -15.8541  -8.0018  -6.0452  -5.3057  -5.1957  -4.4951  -4.4224
    -3.0108   1.4285   1.6852   2.1369   2.7603   2.9844   3.2361   3.2521
     3.6648   3.6964   4.2762   4.6059

          k = 0.1733 0.0996 0.0000 ( 14767 PWs)   bands (ev):

   -15.9037 -15.8040  -7.9595  -6.0752  -5.5032  -5.3434  -4.5859  -4.5065
    -2.9918   1.5317   1.5752   2.2291   2.7120   2.9919   3.2998   3.3592
     3.6566   3.7661   4.3532   4.6215

          k = 0.1926 0.1107 0.0000 ( 14751 PWs)   bands (ev):

   -15.8466 -15.7493  -7.9193  -6.1542  -5.6904  -5.4373  -4.6876  -4.6005
    -2.9763   1.3788   1.7108   2.2915   2.6645   2.9917   3.3694   3.4651
     3.6110   3.8770   4.4378   4.5142

          k = 0.2118 0.1217 0.0000 ( 14745 PWs)   bands (ev):

   -15.7852 -15.6905  -7.8847  -6.2854  -5.8611  -5.4714  -4.7997  -4.7039
    -2.9653   1.2299   1.8317   2.3094   2.6253   3.0030   3.4011   3.5743
     3.6090   3.9860   4.4106   4.5374

          k = 0.2311 0.1328 0.0000 ( 14729 PWs)   bands (ev):

   -15.7199 -15.6281  -7.8604  -6.4512  -6.0084  -5.4615  -4.9215  -4.8160
    -2.9597   1.0859   1.9330   2.2766   2.5980   3.0421   3.3685   3.6876
     3.6880   4.0665   4.3503   4.6520

          k = 0.2503 0.1438 0.0000 ( 14721 PWs)   bands (ev):

   -15.6515 -15.5628  -7.8516  -6.6322  -6.1255  -5.4254  -5.0521  -4.9362
    -2.9606   0.9465   2.0090   2.2034   2.5831   3.1092   3.3258   3.8003
     3.8061   4.0786   4.3913   4.7805

          k = 0.2696 0.1549 0.0000 ( 14713 PWs)   bands (ev):

   -15.5806 -15.4952  -7.8628  -6.8161  -6.2064  -5.3745  -5.1904  -5.0634
    -2.9688   0.8110   2.0543   2.1072   2.5779   3.1938   3.3087   3.8822
     3.9430   4.0881   4.5064   4.9213

          k = 0.2888 0.1660 0.0000 ( 14707 PWs)   bands (ev):

   -15.5079 -15.4260  -7.8961  -6.9956  -6.2477  -5.3354  -5.3161  -5.1954
    -2.9852   0.6784   2.0029   2.0668   2.5793   3.2839   3.3327   3.9047
     4.0926   4.1790   4.6490   5.0721

          k = 0.3081 0.1770 0.0000 ( 14688 PWs)   bands (ev):

   -15.4343 -15.3561  -7.9500  -7.1666  -6.2502  -5.4856  -5.3409  -5.2441
    -3.0103   0.5474   1.9008   2.0488   2.5878   3.3687   3.4002   3.9230
     4.2524   4.3167   4.8052   5.2239

          k = 0.3274 0.1881 0.0000 ( 14690 PWs)   bands (ev):

   -15.3608 -15.2864  -8.0192  -7.3261  -6.2184  -5.6397  -5.4811  -5.1784
    -3.0444   0.4172   1.8075   2.0068   2.6059   3.4413   3.5045   3.9755
     4.4199   4.4692   4.9699   5.2859

          k = 0.3466 0.1992 0.0000 ( 14680 PWs)   bands (ev):

   -15.2883 -15.2177  -8.0970  -7.4718  -6.1589  -5.7962  -5.6262  -5.1099
    -3.0871   0.2870   1.7271   1.9504   2.6345   3.5036   3.6366   4.0672
     4.5890   4.6249   5.1401   5.1792

          k = 0.3659 0.2102 0.0000 ( 14685 PWs)   bands (ev):

   -15.2177 -15.1510  -8.1765  -7.6021  -6.0786  -5.9535  -5.7729  -5.0419
    -3.1376   0.1568   1.6616   1.8887   2.6711   3.5645   3.7888   4.1898
     4.7337   4.7737   5.0829   5.3128

          k = 0.3851 0.2213 0.0000 ( 14686 PWs)   bands (ev):

   -15.1502 -15.0874  -8.2522  -7.7156  -6.1117  -5.9820  -5.9199  -4.9759
    -3.1947   0.0273   1.6115   1.8293   2.7112   3.6327   3.9559   4.3331
     4.7615   4.9024   5.1210   5.4862

          k = 0.4044 0.2324 0.0000 ( 14689 PWs)   bands (ev):

   -15.0868 -15.0276  -8.3196  -7.8112  -6.2666  -6.0658  -5.8771  -4.9133
    -3.2566  -0.1002   1.5759   1.7776   2.7490   3.7134   4.1336   4.4890
     4.6876   4.9969   5.2884   5.6622

          k = 0.4236 0.2434 0.0000 ( 14706 PWs)   bands (ev):

   -15.0284 -14.9727  -8.3758  -7.8882  -6.4182  -6.2091  -5.7669  -4.8553
    -3.3210  -0.2239   1.5527   1.7375   2.7776   3.8089   4.3179   4.6119
     4.6508   5.0527   5.4937   5.8473

          k = 0.4429 0.2545 0.0000 ( 14712 PWs)   bands (ev):

   -14.9759 -14.9234  -8.4186  -7.9462  -6.5646  -6.3484  -5.6563  -4.8030
    -3.3852  -0.3416   1.5393   1.7114   2.7903   3.9197   4.4922   4.5785
     4.8105   5.0811   5.7119   6.0439

          k = 0.4622 0.2656 0.0000 ( 14712 PWs)   bands (ev):

   -14.9300 -14.8803  -8.4471  -7.9855  -6.7038  -6.4818  -5.5496  -4.7571
    -3.4463  -0.4509   1.5329   1.7007   2.7822   4.0456   4.5339   4.7175
     4.9514   5.1075   5.9338   6.2447

          k = 0.4814 0.2766 0.0000 ( 14740 PWs)   bands (ev):

   -14.8912 -14.8440  -8.4615  -8.0070  -6.8335  -6.6073  -5.4514  -4.7183
    -3.5014  -0.5492   1.5306   1.7055   2.7522   4.1857   4.5651   4.9059
     5.0308   5.1777   6.1477   6.4314

          k = 0.5007 0.2877 0.0000 ( 14734 PWs)   bands (ev):

   -14.8600 -14.8147  -8.4631  -8.0126  -6.9508  -6.7222  -5.3660  -4.6869
    -3.5475  -0.6340   1.5301   1.7247   2.7040   4.3387   4.6322   5.0580
     5.0885   5.2760   6.3303   6.5813

          k = 0.5199 0.2988 0.0000 ( 14718 PWs)   bands (ev):

   -14.8363 -14.7925  -8.4547  -8.0054  -7.0518  -6.8227  -5.2974  -4.6630
    -3.5825  -0.7029   1.5297   1.7550   2.6456   4.5031   4.7313   5.0770
     5.2514   5.3434   6.4361   6.6956

          k = 0.5392 0.3098 0.0000 ( 14704 PWs)   bands (ev):

   -14.8200 -14.7772  -8.4408  -7.9907  -7.1315  -6.9036  -5.2483  -4.6466
    -3.6056  -0.7535   1.5286   1.7905   2.5877   4.6766   4.8535   5.0964
     5.3519   5.3724   6.4358   6.8029

          k = 0.5584 0.3209 0.0000 ( 14682 PWs)   bands (ev):

   -14.8107 -14.7685  -8.4276  -7.9757  -7.1840  -6.9579  -5.2197  -4.6372
    -3.6174  -0.7843   1.5270   1.8211   2.5436   4.8526   4.9836   5.1133
     5.2910   5.4181   6.3846   6.9183

          k = 0.5777 0.3320 0.0000 ( 14690 PWs)   bands (ev):

   -14.8078 -14.7658  -8.4217  -7.9687  -7.2029  -6.9779  -5.2108  -4.6343
    -3.6207  -0.7944   1.5261   1.8338   2.5269   4.9784   5.0686   5.1210
     5.2059   5.3967   6.3598   6.9917

          k = 0.5777 0.3209 0.0000 ( 14694 PWs)   bands (ev):

   -14.8084 -14.7664  -8.4235  -7.9710  -7.1978  -6.9724  -5.2128  -4.6349
    -3.6200  -0.7921   1.5265   1.8304   2.5307   4.9152   5.0247   5.1190
     5.2561   5.4241   6.3656   6.9717

          k = 0.5777 0.3098 0.0000 ( 14690 PWs)   bands (ev):

   -14.8102 -14.7681  -8.4290  -7.9775  -7.1829  -6.9564  -5.2185  -4.6368
    -3.6186  -0.7850   1.5279   1.8197   2.5426   4.8011   4.9329   5.1123
     5.3420   5.4818   6.3742   6.9421

          k = 0.5777 0.2988 0.0000 ( 14708 PWs)   bands (ev):

   -14.8133 -14.7710  -8.4382  -7.9884  -7.1583  -6.9302  -5.2275  -4.6399
    -3.6169  -0.7736   1.5308   1.8023   2.5608   4.6624   4.8142   5.1013
     5.4394   5.5551   6.3807   6.9191

          k = 0.5777 0.2877 0.0000 ( 14720 PWs)   bands (ev):

   -14.8174 -14.7749  -8.4511  -8.0034  -7.1243  -6.8941  -5.2392  -4.6442
    -3.6154  -0.7583   1.5356   1.7792   2.5826   4.5082   4.6834   5.0858
     5.5419   5.6352   6.3817   6.9064

          k = 0.5777 0.2766 0.0000 ( 14708 PWs)   bands (ev):

   -14.8225 -14.7797  -8.4673  -8.0221  -7.0813  -6.8488  -5.2533  -4.6494
    -3.6144  -0.7397   1.5427   1.7516   2.6043   4.3435   4.5503   5.0663
     5.6474   5.7176   6.3758   6.9028

          k = 0.5777 0.2656 0.0000 ( 14710 PWs)   bands (ev):

   -14.8285 -14.7853  -8.4865  -8.0437  -7.0301  -6.7952  -5.2692  -4.6554
    -3.6141  -0.7185   1.5529   1.7206   2.6212   4.1717   4.4227   5.0430
     5.7548   5.7996   6.3633   6.9046

          k = 0.5777 0.2545 0.0000 ( 14714 PWs)   bands (ev):

   -14.8352 -14.7916  -8.5080  -8.0677  -6.9716  -6.7341  -5.2865  -4.6623
    -3.6149  -0.6956   1.5665   1.6874   2.6279   3.9955   4.3079   5.0166
     5.8633   5.8790   6.3452   6.9075

          k = 0.5777 0.2434 0.0000 ( 14722 PWs)   bands (ev):

   -14.8425 -14.7985  -8.5314  -8.0933  -6.9064  -6.6666  -5.3047  -4.6698
    -3.6167  -0.6720   1.5842   1.6528   2.6184   3.8174   4.2131   4.9877
     5.9532   5.9725   6.3238   6.9071

          k = 0.5777 0.2324 0.0000 ( 14724 PWs)   bands (ev):

   -14.8504 -14.8059  -8.5561  -8.1201  -6.8355  -6.5935  -5.3236  -4.6778
    -3.6196  -0.6485   1.6065   1.6174   2.5875   3.6391   4.1443   4.9568
     6.0195   6.0814   6.3017   6.9001

          k = 0.5777 0.2213 0.0000 ( 14704 PWs)   bands (ev):

   -14.8586 -14.8137  -8.5817  -8.1475  -6.7597  -6.5155  -5.3426  -4.6862
    -3.6236  -0.6262   1.5817   1.6340   2.5318   3.4624   4.1057   4.9245
     6.0730   6.1891   6.2838   6.8849

          k = 0.5777 0.2102 0.0000 ( 14722 PWs)   bands (ev):

   -14.8672 -14.8218  -8.6077  -8.1751  -6.6799  -6.4336  -5.3616  -4.6950
    -3.6287  -0.6063   1.5463   1.6672   2.4514   3.2887   4.0977   4.8911
     6.1056   6.2777   6.2943   6.8617

          k = 0.5777 0.1992 0.0000 ( 14702 PWs)   bands (ev):

   -14.8759 -14.8300  -8.6337  -8.2025  -6.5969  -6.3484  -5.3801  -4.7040
    -3.6347  -0.5896   1.5112   1.7064   2.3495   3.1193   4.1175   4.8571
     6.1117   6.2892   6.3948   6.8324

          k = 0.5777 0.1881 0.0000 ( 14694 PWs)   bands (ev):

   -14.8847 -14.8384  -8.6596  -8.2294  -6.5116  -6.2606  -5.3977  -4.7132
    -3.6415  -0.5770   1.4767   1.7517   2.2310   2.9554   4.1608   4.8227
     6.0979   6.3117   6.4871   6.8003

          k = 0.5777 0.1770 0.0000 ( 14694 PWs)   bands (ev):

   -14.8936 -14.8467  -8.6849  -8.2556  -6.4248  -6.1709  -5.4143  -4.7224
    -3.6491  -0.5694   1.4427   1.8032   2.1013   2.7982   4.2226   4.7881
     6.0745   6.3352   6.5620   6.7738

          k = 0.5777 0.1660 0.0000 ( 14704 PWs)   bands (ev):

   -14.9023 -14.8550  -8.7094  -8.2808  -6.3375  -6.0802  -5.4292  -4.7316
    -3.6571  -0.5671   1.4091   1.8606   1.9653   2.6490   4.2988   4.7535
     6.0476   6.3548   6.5978   6.7732

          k = 0.5777 0.1549 0.0000 ( 14696 PWs)   bands (ev):

   -14.9109 -14.8631  -8.7330  -8.3050  -6.2509  -5.9890  -5.4421  -4.7408
    -3.6655  -0.5708   1.3754   1.8274   1.9229   2.5091   4.3858   4.7190
     6.0196   6.3690   6.5820   6.8086

          k = 0.5777 0.1438 0.0000 ( 14704 PWs)   bands (ev):

   -14.9192 -14.8710  -8.7555  -8.3280  -6.1662  -5.8980  -5.4522  -4.7497
    -3.6742  -0.5803   1.3401   1.6922   1.9880   2.3811   4.4811   4.6846
     5.9918   6.3780   6.5390   6.8532

          k = 0.5777 0.1328 0.0000 ( 14720 PWs)   bands (ev):

   -14.9272 -14.8786  -8.7768  -8.3496  -6.0848  -5.8082  -5.4589  -4.7585
    -3.6830  -0.5956   1.2998   1.5656   2.0475   2.2733   4.5823   4.6504
     5.9648   6.3824   6.4853   6.8889

          k = 0.5777 0.1217 0.0000 ( 14728 PWs)   bands (ev):

   -14.9347 -14.8858  -8.7967  -8.3697  -6.0087  -5.7202  -5.4610  -4.7671
    -3.6918  -0.6163   1.2468   1.4573   2.0607   2.2261   4.6164   4.6878
     5.9391   6.3831   6.4263   6.9107

          k = 0.5777 0.1107 0.0000 ( 14718 PWs)   bands (ev):

   -14.9419 -14.8925  -8.8151  -8.3884  -5.9400  -5.6350  -5.4573  -4.7753
    -3.7003  -0.6417   1.1709   1.3795   1.9951   2.2712   4.5825   4.7959
     5.9149   6.3643   6.3811   6.9196

          k = 0.5777 0.0996 0.0000 ( 14730 PWs)   bands (ev):

   -14.9485 -14.8988  -8.8320  -8.4054  -5.8809  -5.5533  -5.4462  -4.7833
    -3.7086  -0.6709   1.0751   1.3307   1.9123   2.3461   4.5487   4.9053
     5.8922   6.3009   6.3771   6.9189

          k = 0.5777 0.0885 0.0000 ( 14734 PWs)   bands (ev):

   -14.9546 -14.9046  -8.8473  -8.4207  -5.8334  -5.4761  -5.4270  -4.7910
    -3.7165  -0.7026   0.9733   1.2984   1.8341   2.4274   4.5153   5.0146
     5.8711   6.2375   6.3718   6.9124

          k = 0.5777 0.0775 0.0000 ( 14706 PWs)   bands (ev):

   -14.9600 -14.9098  -8.8609  -8.4344  -5.7979  -5.4043  -5.4001  -4.7983
    -3.7238  -0.7356   0.8749   1.2747   1.7645   2.5095   4.4822   5.1223
     5.8514   6.1757   6.3658   6.9029

          k = 0.5777 0.0664 0.0000 ( 14708 PWs)   bands (ev):

   -14.9648 -14.9144  -8.8727  -8.4463  -5.7732  -5.3677  -5.3390  -4.8053
    -3.7305  -0.7685   0.7845   1.2562   1.7045   2.5891   4.4500   5.2267
     5.8331   6.1172   6.3595   6.8923

          k = 0.5777 0.0553 0.0000 ( 14702 PWs)   bands (ev):

   -14.9690 -14.9183  -8.8829  -8.4564  -5.7571  -5.3332  -5.2810  -4.8119
    -3.7364  -0.7996   0.7047   1.2415   1.6541   2.6636   4.4194   5.3260
     5.8157   6.0638   6.3532   6.8821

          k = 0.5777 0.0443 0.0000 ( 14696 PWs)   bands (ev):

   -14.9724 -14.9215  -8.8912  -8.4648  -5.7470  -5.3001  -5.2314  -4.8180
    -3.7415  -0.8275   0.6373   1.2299   1.6133   2.7303   4.3912   5.4181
     5.7986   6.0171   6.3473   6.8728

          k = 0.5777 0.0332 0.0000 ( 14688 PWs)   bands (ev):

   -14.9751 -14.9241  -8.8977  -8.4713  -5.7409  -5.2715  -5.1913  -4.8234
    -3.7455  -0.8509   0.5836   1.2210   1.5818   2.7863   4.3668   5.5005
     5.7809   5.9789   6.3420   6.8653

          k = 0.5777 0.0221 0.0000 ( 14684 PWs)   bands (ev):

   -14.9770 -14.9259  -8.9023  -8.4759  -5.7374  -5.2496  -5.1616  -4.8278
    -3.7485  -0.8685   0.5445   1.2148   1.5596   2.8289   4.3477   5.5703
     5.7616   5.9505   6.3378   6.8473

          k = 0.5777 0.0111 0.0000 ( 14686 PWs)   bands (ev):

   -14.9782 -14.9270  -8.9051  -8.4787  -5.7356  -5.2358  -5.1433  -4.8306
    -3.7503  -0.8795   0.5207   1.2111   1.5463   2.8556   4.3355   5.6233
     5.7411   5.9330   6.3349   6.8254

          k = 0.5777 0.0000 0.0000 ( 14678 PWs)   bands (ev):

   -14.9785 -14.9274  -8.9061  -8.4796  -5.7351  -5.2311  -5.1371  -4.8317
    -3.7509  -0.8832   0.5128   1.2099   1.5419   2.8647   4.3313   5.6467
     5.7289   5.9271   6.3339   6.8177

          k = 0.5584 0.0000 0.0000 ( 14672 PWs)   bands (ev):

   -14.9830 -14.9315  -8.8974  -8.4701  -5.7466  -5.2288  -5.1349  -4.8360
    -3.7391  -0.8786   0.5168   1.2184   1.5454   2.8670   4.3311   5.6473
     5.6706   5.9224   6.3607   6.7032

          k = 0.5392 0.0000 0.0000 ( 14682 PWs)   bands (ev):

   -14.9961 -14.9438  -8.8718  -8.4418  -5.7799  -5.2218  -5.1281  -4.8489
    -3.7050  -0.8649   0.5286   1.2440   1.5558   2.8739   4.3305   5.5320
     5.6488   5.9051   6.3945   6.5003

          k = 0.5199 0.0000 0.0000 ( 14704 PWs)   bands (ev):

   -15.0176 -14.9638  -8.8296  -8.3949  -5.8317  -5.2103  -5.1169  -4.8701
    -3.6520  -0.8416   0.5483   1.2860   1.5735   2.8853   4.3288   5.3594
     5.6509   5.8644   6.3135   6.3800

          k = 0.5007 0.0000 0.0000 ( 14698 PWs)   bands (ev):

   -15.0470 -14.9913  -8.7720  -8.3300  -5.8978  -5.1943  -5.1014  -4.8989
    -3.5849  -0.8081   0.5757   1.3437   1.5989   2.9009   4.3249   5.1748
     5.6530   5.7845   6.1583   6.3072

          k = 0.4814 0.0000 0.0000 ( 14710 PWs)   bands (ev):

   -15.0835 -15.0255  -8.7001  -8.2479  -5.9734  -5.1738  -5.0815  -4.9347
    -3.5089  -0.7638   0.6108   1.4160   1.6324   2.9206   4.3173   4.9875
     5.6539   5.6595   6.0371   6.1885

          k = 0.4622 0.0000 0.0000 ( 14718 PWs)   bands (ev):

   -15.1265 -15.0658  -8.6158  -8.1494  -6.0538  -5.1490  -5.0574  -4.9766
    -3.4288  -0.7076   0.6532   1.5015   1.6747   2.9439   4.3038   4.8021
     5.5062   5.6524   5.9345   6.0414

          k = 0.4429 0.0000 0.0000 ( 14704 PWs)   bands (ev):

   -15.1749 -15.1113  -8.5213  -8.0356  -6.1348  -5.1200  -5.0293  -5.0237
    -3.3490  -0.6389   0.7026   1.5988   1.7262   2.9705   4.2819   4.6210
     5.3437   5.6465   5.8386   5.8808

          k = 0.4236 0.0000 0.0000 ( 14716 PWs)   bands (ev):

   -15.2278 -15.1611  -8.4194  -7.9076  -6.2120  -5.0869  -5.0748  -4.9973
    -3.2730  -0.5569   0.7587   1.7059   1.7874   2.9997   4.2491   4.4459
     5.1823   5.6338   5.7160   5.7488

          k = 0.4044 0.0000 0.0000 ( 14706 PWs)   bands (ev):

   -15.2844 -15.2145  -8.3135  -7.7667  -6.2811  -5.1290  -5.0501  -4.9616
    -3.2036  -0.4612   0.8210   1.8208   1.8586   3.0307   4.2031   4.2780
     5.0260   5.5523   5.6112   5.6683

          k = 0.3851 0.0000 0.0000 ( 14690 PWs)   bands (ev):

   -15.3437 -15.2705  -8.2080  -7.6141  -6.3372  -5.1851  -5.0096  -4.9224
    -3.1426  -0.3518   0.8886   1.9397   1.9412   3.0627   4.1184   4.1430
     4.8765   5.3927   5.5751   5.5987

          k = 0.3659 0.0000 0.0000 ( 14696 PWs)   bands (ev):

   -15.4049 -15.3284  -8.1083  -7.4512  -6.3751  -5.2420  -4.9658  -4.8801
    -3.0913  -0.2291   0.9608   2.0304   2.0640   3.0945   3.9683   4.0692
     4.7337   5.2389   5.5220   5.5368

          k = 0.3466 0.0000 0.0000 ( 14714 PWs)   bands (ev):

   -15.4670 -15.3873  -8.0203  -7.2797  -6.3889  -5.2983  -4.9189  -4.8348
    -3.0499  -0.0939   1.0361   2.1296   2.1863   3.1247   3.8291   3.9840
     4.5970   5.0922   5.4486   5.4722

          k = 0.3274 0.0000 0.0000 ( 14708 PWs)   bands (ev):

   -15.5293 -15.4465  -7.9501  -7.1013  -6.3729  -5.3527  -4.8694  -4.7870
    -3.0183   0.0524   1.1130   2.2356   2.3038   3.1517   3.7030   3.8902
     4.4656   4.9533   5.3535   5.3848

          k = 0.3081 0.0000 0.0000 ( 14732 PWs)   bands (ev):

   -15.5912 -15.5054  -7.9018  -6.9184  -6.3237  -5.4033  -4.8175  -4.7370
    -2.9960   0.2083   1.1890   2.3453   2.4118   3.1736   3.5925   3.7908
     4.3385   4.8229   5.2372   5.2536

          k = 0.2888 0.0000 0.0000 ( 14730 PWs)   bands (ev):

   -15.6520 -15.5633  -7.8767  -6.7339  -6.2406  -5.4477  -4.7638  -4.6854
    -2.9820   0.3722   1.2608   2.4541   2.5046   3.1885   3.5010   3.6878
     4.2147   4.7017   5.0863   5.1024

          k = 0.2696 0.0000 0.0000 ( 14738 PWs)   bands (ev):

   -15.7111 -15.6198  -7.8723  -6.5527  -6.1269  -5.4818  -4.7088  -4.6324
    -2.9753   0.5422   1.3242   2.5549   2.5774   3.1943   3.4315   3.5825
     4.0937   4.5896   4.9146   4.9537

          k = 0.2503 0.0000 0.0000 ( 14753 PWs)   bands (ev):

   -15.7680 -15.6741  -7.8844  -6.3822  -5.9880  -5.4989  -4.6529  -4.5787
    -2.9749   0.7163   1.3732   2.6280   2.6371   3.1892   3.3840   3.4751
     3.9767   4.4855   4.7663   4.7679

          k = 0.2311 0.0000 0.0000 ( 14755 PWs)   bands (ev):

   -15.8223 -15.7261  -7.9081  -6.2351  -5.8297  -5.4875  -4.5967  -4.5249
    -2.9798   0.8923   1.4011   2.6607   2.6866   3.1720   3.3529   3.3666
     3.8675   4.3839   4.5940   4.6343

          k = 0.2118 0.0000 0.0000 ( 14775 PWs)   bands (ev):

   -15.8736 -15.7751  -7.9392  -6.1274  -5.6579  -5.4325  -4.5409  -4.4715
    -2.9891   1.0677   1.4012   2.6851   2.6877   3.1425   3.2620   3.3280
     3.7713   4.2747   4.4722   4.4729

          k = 0.1926 0.0000 0.0000 ( 14763 PWs)   bands (ev):

   -15.9214 -15.8210  -7.9741  -6.0674  -5.4774  -5.3274  -4.4863  -4.4192
    -3.0020   1.2387   1.3692   2.6314   2.7106   3.1014   3.1707   3.3003
     3.6902   4.1603   4.3156   4.4021

          k = 0.1733 0.0000 0.0000 ( 14759 PWs)   bands (ev):

   -15.9655 -15.8633  -8.0102  -6.0456  -5.2927  -5.1833  -4.4334  -4.3688
    -3.0178   1.3051   1.3994   2.5280   2.7402   3.0509   3.0969   3.2685
     3.6216   4.0552   4.1653   4.3666

          k = 0.1541 0.0000 0.0000 ( 14759 PWs)   bands (ev):

   -16.0056 -15.9018  -8.0458  -6.0461  -5.1078  -5.0184  -4.3832  -4.3210
    -3.0360   1.2134   1.5382   2.4076   2.7692   2.9937   3.0363   3.2407
     3.5621   3.9654   4.0248   4.3521

          k = 0.1348 0.0000 0.0000 ( 14777 PWs)   bands (ev):

   -16.0416 -15.9363  -8.0795  -6.0574  -4.9266  -4.8470  -4.3364  -4.2764
    -3.0562   1.1018   1.6310   2.3128   2.7873   2.9331   2.9842   3.2300
     3.5092   3.8903   3.8960   4.3494

          k = 0.1155 0.0000 0.0000 ( 14757 PWs)   bands (ev):

   -16.0731 -15.9666  -8.1101  -6.0729  -4.7532  -4.6787  -4.2937  -4.2359
    -3.0780   0.9793   1.6437   2.2901   2.7868   2.8727   2.9384   3.2453
     3.4622   3.7809   3.8274   4.3525

          k = 0.0963 0.0000 0.0000 ( 14781 PWs)   bands (ev):

   -16.1000 -15.9925  -8.1370  -6.0890  -4.5918  -4.5212  -4.2561  -4.2002
    -3.1009   0.8551   1.5787   2.3440   2.7701   2.8157   2.8983   3.2835
     3.4211   3.6809   3.7749   4.3575

          k = 0.0770 0.0000 0.0000 ( 14787 PWs)   bands (ev):

   -16.1222 -16.0139  -8.1596  -6.1039  -4.4472  -4.3806  -4.2241  -4.1699
    -3.1241   0.7379   1.4808   2.4340   2.7459   2.7651   2.8638   3.3336
     3.3860   3.5974   3.7312   4.3623

          k = 0.0578 0.0000 0.0000 ( 14765 PWs)   bands (ev):

   -16.1396 -16.0306  -8.1775  -6.1163  -4.3249  -4.2631  -4.1985  -4.1457
    -3.1465   0.6361   1.3843   2.5279   2.7218   2.7232   2.8343   3.3574
     3.3849   3.5313   3.6954   4.3662

          k = 0.0385 0.0000 0.0000 ( 14775 PWs)   bands (ev):

   -16.1521 -16.0426  -8.1905  -6.1255  -4.2309  -4.1797  -4.1742  -4.1280
    -3.1657   0.5572   1.3068   2.6091   2.6919   2.7023   2.8092   3.3358
     3.4296   3.4835   3.6671   4.3688

          k = 0.0193 0.0000 0.0000 ( 14793 PWs)   bands (ev):

   -16.1596 -16.0499  -8.1984  -6.1312  -4.1711  -4.1683  -4.1187  -4.1172
    -3.1792   0.5071   1.2571   2.6680   2.6726   2.6899   2.7880   3.3222
     3.4546   3.4609   3.6477   4.3703

          k = 0.0000 0.0000 0.0000 ( 14799 PWs)   bands (ev):

   -16.1621 -16.0523  -8.2011  -6.1331  -4.1645  -4.1505  -4.1136  -4.0998
    -3.1841   0.4900   1.2401   2.6661   2.6857   2.6923   2.7770   3.3175
     3.4449   3.4726   3.6404   4.3708

     Writing all to output data dir ./work/Al2S2.save/
 
     init_run     :      0.31s CPU      0.37s WALL (       1 calls)
     electrons    :     66.59s CPU     86.18s WALL (       1 calls)

     Called by init_run:
     wfcinit      :      0.00s CPU      0.00s WALL (       1 calls)
     wfcinit:atom :      0.02s CPU      0.02s WALL (      91 calls)
     wfcinit:wfcr :      1.27s CPU      1.81s WALL (      91 calls)
     potinit      :      0.08s CPU      0.10s WALL (       1 calls)
     hinit0       :      0.11s CPU      0.12s WALL (       1 calls)

     Called by electrons:
     c_bands      :     66.59s CPU     86.16s WALL (       1 calls)
     v_of_rho     :      0.01s CPU      0.01s WALL (       1 calls)
     v_h          :      0.00s CPU      0.00s WALL (       1 calls)
     v_xc         :      0.01s CPU      0.01s WALL (       1 calls)
     newd         :      0.08s CPU      0.10s WALL (       1 calls)
     PAW_pot      :      0.07s CPU      0.09s WALL (       1 calls)

     Called by c_bands:
     init_us_2    :      0.03s CPU      0.03s WALL (      91 calls)
     init_us_2:cp :      0.03s CPU      0.03s WALL (      91 calls)
     cegterg      :     64.89s CPU     83.88s WALL (     347 calls)

     Called by sum_band:

     Called by *egterg:
     cdiaghg      :      2.38s CPU      2.62s WALL (    6376 calls)
     cegterg:over :      3.70s CPU      4.03s WALL (    6285 calls)
     cegterg:upda :      1.65s CPU      1.76s WALL (    6285 calls)
     cegterg:last :      5.19s CPU      5.32s WALL (    3581 calls)
     h_psi        :     48.81s CPU     67.08s WALL (    6723 calls)
     s_psi        :      2.61s CPU      2.91s WALL (    6723 calls)
     g_psi        :      0.15s CPU      0.16s WALL (    6285 calls)

     Called by h_psi:
     h_psi:calbec :      4.79s CPU      6.45s WALL (    6723 calls)
     vloc_psi     :     37.43s CPU     52.97s WALL (    6723 calls)
     add_vuspsi   :      6.27s CPU      7.32s WALL (    6723 calls)

     General routines
     calbec       :      4.78s CPU      6.43s WALL (    6723 calls)
     fft          :      0.02s CPU      0.02s WALL (      12 calls)
     fftw         :     35.23s CPU     50.14s WALL (  137958 calls)
     davcio       :      0.03s CPU      0.04s WALL (     182 calls)
 
     Parallel routines

     PAW routines
     PAW_pot      :      0.07s CPU      0.09s WALL (       1 calls)
 
     PWSCF        :   1m 7.33s CPU   1m27.65s WALL

 
   This run was terminated on:  14:57:17  16Jun2023            

=------------------------------------------------------------------------------=
   JOB DONE.
=------------------------------------------------------------------------------=
