
     Program BANDS v.7.1 starts on  7Mar2023 at 14: 9:42 

     This program is part of the open-source Quantum ESPRESSO suite
     for quantum simulation of materials; please cite
         "P. Giannozzi et al., J. Phys.:Condens. Matter 21 395502 (2009);
         "P. Giannozzi et al., J. Phys.:Condens. Matter 29 465901 (2017);
         "P. Giannozzi et al., J. Chem. Phys. 152 154105 (2020);
          URL http://www.quantum-espresso.org", 
     in publications or presentations arising from this work. More details at
     http://www.quantum-espresso.org/quote

     Parallel version (MPI), running on    22 processors

     MPI processes distributed on     1 nodes
     R & G space division:  proc/nbgrp/npool/nimage =      22
     95483 MiB available memory on the printing compute node when the environment starts
 

     Reading xml data from directory:

     ./work/Al2SO.save/
     Message from routine volume:
     axis vectors are left-handed
     file Al.pbe-n-kjpaw_psl.1.0.0.UPF: wavefunction(s)  3S 3P renormalized
     file O.pbe-n-kjpaw_psl.1.0.0.UPF: wavefunction(s)  2S 2P renormalized
     file S.pbe-n-kjpaw_psl.1.0.0.UPF: wavefunction(s)  3S 3P renormalized

     IMPORTANT: XC functional enforced from input :
     Exchange-correlation= PBE
                           (   1   4   3   4   0   0   0)
     Any further DFT definition will be discarded
     Please, verify this is what you really want

 
     Parallelization info
     --------------------
     sticks:   dense  smooth     PW     G-vecs:    dense   smooth      PW
     Min          28      28      8                 2538     2538     398
     Max          29      29      9                 2547     2547     413
     Sum         637     637    187                55957    55957    8959
 
     Using Slab Decomposition
 

     Check: negative core charge=   -0.000003
     Reading collected, re-writing distributed wavefunctions
     high-symmetry point:  0.0000 0.0000 0.0000   x coordinate   0.0000
     high-symmetry point:  0.5773-0.3335-0.0000   x coordinate   0.6667
     high-symmetry point:  0.5773 0.0000-0.0000   x coordinate   1.0002
     high-symmetry point:  0.0000 0.0000 0.0000   x coordinate   1.5775

     Plottable bands (eV) written to file AC.bands.gnu
     Bands written to file AC.bands

 **************************************************************************

                    xk=(   0.00000,   0.00000,   0.00000  )

     point group C_s (m)    
     there are  2 classes
     the character table:

       E     s    
A'     1.00  1.00
A''    1.00 -1.00

     the symmetry operations in each class and the name of the first element:

     E        1
                                                                 
     s        2
                                                                 

     Band symmetry, C_s (m)     point group:

     e(  1 -  1) =    -13.78322  eV     1   --> A'             
     e(  2 -  2) =    -13.78185  eV     1   --> A'             
     e(  3 -  3) =     -8.38938  eV     1   --> A'             
     e(  4 -  4) =     -8.37738  eV     1   --> A'             
     e(  5 -  5) =     -0.94988  eV     1   --> A'             
     e(  6 -  6) =     -0.41638  eV     1   --> A'             
     e(  7 -  7) =      0.69086  eV     1   --> A'             
     e(  8 -  8) =      1.20526  eV     1   --> A'             
     e(  9 -  9) =      1.20588  eV     1   --> A''            
     e( 10 - 10) =      1.20602  eV     1   --> A'             
     e( 11 - 11) =      1.20671  eV     1   --> A''            
     e( 12 - 12) =      2.05629  eV     1   --> A'             
     e( 13 - 13) =      3.34972  eV     1   --> A'             
     e( 14 - 14) =      4.97164  eV     1   --> A'             
     e( 15 - 15) =      5.38810  eV     1   --> A'             
     e( 16 - 16) =      5.38985  eV     1   --> A''            
     e( 17 - 17) =      5.39056  eV     1   --> A'             
     e( 18 - 18) =      5.39248  eV     1   --> A''            
     e( 19 - 19) =      6.76891  eV     1   --> A'             
     e( 20 - 20) =      8.30850  eV     1   --> A'             
     e( 21 - 21) =     11.10595  eV     1   --> A'             
     e( 22 - 22) =     11.58134  eV     1   --> A'             
     e( 23 - 23) =     11.73322  eV     1   --> A'             
     e( 24 - 24) =     12.87151  eV     1   --> A'             
     e( 25 - 25) =     12.87560  eV     1   --> A''            
     e( 26 - 26) =     12.94557  eV     1   --> A'             
     e( 27 - 27) =     12.94971  eV     1   --> A''            
     e( 28 - 28) =     13.35947  eV     1   --> A'             
     e( 29 - 29) =     14.44109  eV     1   --> A'             
     e( 30 - 30) =     14.44486  eV     1   --> A''            
     e( 31 - 31) =     14.56867  eV     1   --> A'             
     e( 32 - 32) =     14.57257  eV     1   --> A''            
     e( 33 - 33) =     15.10739  eV     1   --> A'             
     e( 34 - 34) =     16.08609  eV     1   --> A'             
     e( 35 - 35) =     16.08968  eV     1   --> A''            
     e( 36 - 36) =     16.48541  eV     1   --> A'             
     e( 37 - 37) =     16.48902  eV     1   --> A''            
     e( 38 - 38) =     16.71216  eV     1   --> A'             
     e( 39 - 39) =     17.83048  eV     1   --> A'             
     e( 40 - 40) =     18.04570  eV     1   --> A'             
     e( 41 - 41) =     18.11260  eV     1   --> A'             
     e( 42 - 42) =     18.11565  eV     1   --> A''            
     e( 43 - 43) =     18.95581  eV     1   --> A'             
     e( 44 - 44) =     18.95904  eV     1   --> A''            
     e( 45 - 45) =     19.44489  eV     1   --> A'             
     e( 46 - 46) =     20.06101  eV     1   --> A'             
     e( 47 - 47) =     20.38928  eV     1   --> A'             
     e( 48 - 48) =     20.69253  eV     1   --> A'             
     e( 49 - 49) =     20.69678  eV     1   --> A''            
     e( 50 - 50) =     21.34312  eV     1   --> A'             
     e( 51 - 51) =     21.34748  eV     1   --> A''            
     e( 52 - 52) =     21.47722  eV     1   --> A'             
     e( 53 - 53) =     22.05671  eV     1   --> A'             
     e( 54 - 54) =     22.80764  eV     1   --> A'             
     e( 55 - 55) =     22.81106  eV     1   --> A''            
     e( 56 - 56) =     23.00941  eV     1   --> A'             
     e( 57 - 57) =     24.17122  eV     1   --> A'             
     e( 58 - 58) =     24.38023  eV     1   --> A'             
     e( 59 - 59) =     24.38425  eV     1   --> A''            
     e( 60 - 60) =     24.48032  eV     1   --> A'             
     e( 61 - 61) =     24.76454  eV     1   --> A'             
     e( 62 - 62) =     24.76856  eV     1   --> A''            
     e( 63 - 63) =     25.95960  eV     1   --> A'             
     e( 64 - 64) =     25.96349  eV     1   --> A''            
     e( 65 - 65) =     26.31876  eV     1   --> A'             
     e( 66 - 66) =     27.28628  eV     1   --> A'             
     e( 67 - 67) =     27.29080  eV     1   --> A''            
     e( 68 - 68) =     27.62885  eV     1   --> A'             
     e( 69 - 69) =     28.35194  eV     1   --> A'             
     e( 70 - 70) =     28.35760  eV     1   --> A''            
     e( 71 - 71) =     29.15753  eV     1   --> A'             
     e( 72 - 72) =     29.59378  eV     1   --> A'             

 **************************************************************************

 **************************************************************************

                    xk=(   0.01924,  -0.01112,  -0.00000  )

     point group C_1 (1)    
     there are  1 classes
     the character table:

       E    
A      1.00

     the symmetry operations in each class and the name of the first element:

     E        1
                                                                 

     Band symmetry, C_1 (1)     point group:

     e(  1 -  1) =    -13.78144  eV     1   --> A              
     e(  2 -  2) =    -13.78007  eV     1   --> A              
     e(  3 -  3) =     -8.38463  eV     1   --> A              
     e(  4 -  4) =     -8.37266  eV     1   --> A              
     e(  5 -  5) =     -0.94482  eV     1   --> A              
     e(  6 -  6) =     -0.41438  eV     1   --> A              
     e(  7 -  7) =      0.69482  eV     1   --> A              
     e(  8 -  8) =      1.18443  eV     1   --> A              
     e(  9 -  9) =      1.19470  eV     1   --> A              
     e( 10 - 10) =      1.20367  eV     1   --> A              
     e( 11 - 11) =      1.20448  eV     1   --> A              
     e( 12 - 12) =      2.06309  eV     1   --> A              
     e( 13 - 13) =      3.36155  eV     1   --> A              
     e( 14 - 14) =      4.97579  eV     1   --> A              
     e( 15 - 15) =      5.35587  eV     1   --> A              
     e( 16 - 16) =      5.35748  eV     1   --> A              
     e( 17 - 17) =      5.38209  eV     1   --> A              
     e( 18 - 18) =      5.38469  eV     1   --> A              
     e( 19 - 19) =      6.78342  eV     1   --> A              
     e( 20 - 20) =      8.31974  eV     1   --> A              
     e( 21 - 21) =     11.10431  eV     1   --> A              
     e( 22 - 22) =     11.60961  eV     1   --> A              
     e( 23 - 23) =     11.76062  eV     1   --> A              
     e( 24 - 24) =     12.84751  eV     1   --> A              
     e( 25 - 25) =     12.88516  eV     1   --> A              
     e( 26 - 26) =     12.90549  eV     1   --> A              
     e( 27 - 27) =     12.96111  eV     1   --> A              
     e( 28 - 28) =     13.37424  eV     1   --> A              
     e( 29 - 29) =     14.38751  eV     1   --> A              
     e( 30 - 30) =     14.44888  eV     1   --> A              
     e( 31 - 31) =     14.53368  eV     1   --> A              
     e( 32 - 32) =     14.57892  eV     1   --> A              
     e( 33 - 33) =     15.13859  eV     1   --> A              
     e( 34 - 34) =     16.02783  eV     1   --> A              
     e( 35 - 35) =     16.06936  eV     1   --> A              
     e( 36 - 36) =     16.31656  eV     1   --> A              
     e( 37 - 37) =     16.48295  eV     1   --> A              
     e( 38 - 38) =     16.85815  eV     1   --> A              
     e( 39 - 39) =     17.87628  eV     1   --> A              
     e( 40 - 40) =     18.07055  eV     1   --> A              
     e( 41 - 41) =     18.08948  eV     1   --> A              
     e( 42 - 42) =     18.12551  eV     1   --> A              
     e( 43 - 43) =     18.96124  eV     1   --> A              
     e( 44 - 44) =     18.97702  eV     1   --> A              
     e( 45 - 45) =     19.47547  eV     1   --> A              
     e( 46 - 46) =     20.10527  eV     1   --> A              
     e( 47 - 47) =     20.43389  eV     1   --> A              
     e( 48 - 48) =     20.66580  eV     1   --> A              
     e( 49 - 49) =     20.69525  eV     1   --> A              
     e( 50 - 50) =     21.30449  eV     1   --> A              
     e( 51 - 51) =     21.34779  eV     1   --> A              
     e( 52 - 52) =     21.51317  eV     1   --> A              
     e( 53 - 53) =     22.07400  eV     1   --> A              
     e( 54 - 54) =     22.75248  eV     1   --> A              
     e( 55 - 55) =     22.82165  eV     1   --> A              
     e( 56 - 56) =     23.06767  eV     1   --> A              
     e( 57 - 57) =     24.13840  eV     1   --> A              
     e( 58 - 58) =     24.38938  eV     1   --> A              
     e( 59 - 59) =     24.40107  eV     1   --> A              
     e( 60 - 60) =     24.53260  eV     1   --> A              
     e( 61 - 61) =     24.76961  eV     1   --> A              
     e( 62 - 62) =     24.77326  eV     1   --> A              
     e( 63 - 63) =     25.89794  eV     1   --> A              
     e( 64 - 64) =     25.95325  eV     1   --> A              
     e( 65 - 65) =     26.39234  eV     1   --> A              
     e( 66 - 66) =     27.29043  eV     1   --> A              
     e( 67 - 67) =     27.32621  eV     1   --> A              
     e( 68 - 68) =     27.66663  eV     1   --> A              
     e( 69 - 69) =     28.34478  eV     1   --> A              
     e( 70 - 70) =     28.36419  eV     1   --> A              
     e( 71 - 71) =     29.18384  eV     1   --> A              
     e( 72 - 72) =     29.56234  eV     1   --> A              

 **************************************************************************

 **************************************************************************

                    xk=(   0.03849,  -0.02223,  -0.00000  )

     Band symmetry, C_1 (1)     point group:

     e(  1 -  1) =    -13.77611  eV     1   --> A              
     e(  2 -  2) =    -13.77475  eV     1   --> A              
     e(  3 -  3) =     -8.37040  eV     1   --> A              
     e(  4 -  4) =     -8.35852  eV     1   --> A              
     e(  5 -  5) =     -0.92965  eV     1   --> A              
     e(  6 -  6) =     -0.40869  eV     1   --> A              
     e(  7 -  7) =      0.70664  eV     1   --> A              
     e(  8 -  8) =      1.12321  eV     1   --> A              
     e(  9 -  9) =      1.16268  eV     1   --> A              
     e( 10 - 10) =      1.19746  eV     1   --> A              
     e( 11 - 11) =      1.19828  eV     1   --> A              
     e( 12 - 12) =      2.08166  eV     1   --> A              
     e( 13 - 13) =      3.39583  eV     1   --> A              
     e( 14 - 14) =      4.98755  eV     1   --> A              
     e( 15 - 15) =      5.25736  eV     1   --> A              
     e( 16 - 16) =      5.26372  eV     1   --> A              
     e( 17 - 17) =      5.35995  eV     1   --> A              
     e( 18 - 18) =      5.36258  eV     1   --> A              
     e( 19 - 19) =      6.82616  eV     1   --> A              
     e( 20 - 20) =      8.35303  eV     1   --> A              
     e( 21 - 21) =     11.09828  eV     1   --> A              
     e( 22 - 22) =     11.68996  eV     1   --> A              
     e( 23 - 23) =     11.83932  eV     1   --> A              
     e( 24 - 24) =     12.77570  eV     1   --> A              
     e( 25 - 25) =     12.79225  eV     1   --> A              
     e( 26 - 26) =     12.92203  eV     1   --> A              
     e( 27 - 27) =     12.99797  eV     1   --> A              
     e( 28 - 28) =     13.40542  eV     1   --> A              
     e( 29 - 29) =     14.24968  eV     1   --> A              
     e( 30 - 30) =     14.42852  eV     1   --> A              
     e( 31 - 31) =     14.46775  eV     1   --> A              
     e( 32 - 32) =     14.60039  eV     1   --> A              
     e( 33 - 33) =     15.20812  eV     1   --> A              
     e( 34 - 34) =     15.87295  eV     1   --> A              
     e( 35 - 35) =     15.96827  eV     1   --> A              
     e( 36 - 36) =     16.10482  eV     1   --> A              
     e( 37 - 37) =     16.46481  eV     1   --> A              
     e( 38 - 38) =     17.04078  eV     1   --> A              
     e( 39 - 39) =     17.94734  eV     1   --> A              
     e( 40 - 40) =     18.09147  eV     1   --> A              
     e( 41 - 41) =     18.10231  eV     1   --> A              
     e( 42 - 42) =     18.16471  eV     1   --> A              
     e( 43 - 43) =     18.99822  eV     1   --> A              
     e( 44 - 44) =     19.02988  eV     1   --> A              
     e( 45 - 45) =     19.56398  eV     1   --> A              
     e( 46 - 46) =     20.22432  eV     1   --> A              
     e( 47 - 47) =     20.54033  eV     1   --> A              
     e( 48 - 48) =     20.59694  eV     1   --> A              
     e( 49 - 49) =     20.71424  eV     1   --> A              
     e( 50 - 50) =     21.19598  eV     1   --> A              
     e( 51 - 51) =     21.35051  eV     1   --> A              
     e( 52 - 52) =     21.60866  eV     1   --> A              
     e( 53 - 53) =     22.12650  eV     1   --> A              
     e( 54 - 54) =     22.64891  eV     1   --> A              
     e( 55 - 55) =     22.85299  eV     1   --> A              
     e( 56 - 56) =     23.18161  eV     1   --> A              
     e( 57 - 57) =     24.06532  eV     1   --> A              
     e( 58 - 58) =     24.40037  eV     1   --> A              
     e( 59 - 59) =     24.43757  eV     1   --> A              
     e( 60 - 60) =     24.64800  eV     1   --> A              
     e( 61 - 61) =     24.79181  eV     1   --> A              
     e( 62 - 62) =     24.83006  eV     1   --> A              
     e( 63 - 63) =     25.76837  eV     1   --> A              
     e( 64 - 64) =     25.92503  eV     1   --> A              
     e( 65 - 65) =     26.55545  eV     1   --> A              
     e( 66 - 66) =     27.30230  eV     1   --> A              
     e( 67 - 67) =     27.42879  eV     1   --> A              
     e( 68 - 68) =     27.76944  eV     1   --> A              
     e( 69 - 69) =     28.32865  eV     1   --> A              
     e( 70 - 70) =     28.38596  eV     1   --> A              
     e( 71 - 71) =     29.24764  eV     1   --> A              
     e( 72 - 72) =     29.48488  eV     1   --> A              

 **************************************************************************

 **************************************************************************

                    xk=(   0.05773,  -0.03335,  -0.00000  )

     Band symmetry, C_1 (1)     point group:

     e(  1 -  1) =    -13.76729  eV     1   --> A              
     e(  2 -  2) =    -13.76595  eV     1   --> A              
     e(  3 -  3) =     -8.34676  eV     1   --> A              
     e(  4 -  4) =     -8.33503  eV     1   --> A              
     e(  5 -  5) =     -0.90452  eV     1   --> A              
     e(  6 -  6) =     -0.40022  eV     1   --> A              
     e(  7 -  7) =      0.72621  eV     1   --> A              
     e(  8 -  8) =      1.02977  eV     1   --> A              
     e(  9 -  9) =      1.11278  eV     1   --> A              
     e( 10 - 10) =      1.18705  eV     1   --> A              
     e( 11 - 11) =      1.18788  eV     1   --> A              
     e( 12 - 12) =      2.10781  eV     1   --> A              
     e( 13 - 13) =      3.44901  eV     1   --> A              
     e( 14 - 14) =      5.00384  eV     1   --> A              
     e( 15 - 15) =      5.10328  eV     1   --> A              
     e( 16 - 16) =      5.11732  eV     1   --> A              
     e( 17 - 17) =      5.32287  eV     1   --> A              
     e( 18 - 18) =      5.32554  eV     1   --> A              
     e( 19 - 19) =      6.89532  eV     1   --> A              
     e( 20 - 20) =      8.40713  eV     1   --> A              
     e( 21 - 21) =     11.08559  eV     1   --> A              
     e( 22 - 22) =     11.80997  eV     1   --> A              
     e( 23 - 23) =     11.95840  eV     1   --> A              
     e( 24 - 24) =     12.63578  eV     1   --> A              
     e( 25 - 25) =     12.66436  eV     1   --> A              
     e( 26 - 26) =     12.97696  eV     1   --> A              
     e( 27 - 27) =     13.05837  eV     1   --> A              
     e( 28 - 28) =     13.43709  eV     1   --> A              
     e( 29 - 29) =     14.06654  eV     1   --> A              
     e( 30 - 30) =     14.28027  eV     1   --> A              
     e( 31 - 31) =     14.49011  eV     1   --> A              
     e( 32 - 32) =     14.63642  eV     1   --> A              
     e( 33 - 33) =     15.27922  eV     1   --> A              
     e( 34 - 34) =     15.66888  eV     1   --> A              
     e( 35 - 35) =     15.72507  eV     1   --> A              
     e( 36 - 36) =     15.99584  eV     1   --> A              
     e( 37 - 37) =     16.43196  eV     1   --> A              
     e( 38 - 38) =     17.15735  eV     1   --> A              
     e( 39 - 39) =     17.95781  eV     1   --> A              
     e( 40 - 40) =     18.11023  eV     1   --> A              
     e( 41 - 41) =     18.18903  eV     1   --> A              
     e( 42 - 42) =     18.23430  eV     1   --> A              
     e( 43 - 43) =     19.11276  eV     1   --> A              
     e( 44 - 44) =     19.11632  eV     1   --> A              
     e( 45 - 45) =     19.70108  eV     1   --> A              
     e( 46 - 46) =     20.35308  eV     1   --> A              
     e( 47 - 47) =     20.55191  eV     1   --> A              
     e( 48 - 48) =     20.58572  eV     1   --> A              
     e( 49 - 49) =     20.86047  eV     1   --> A              
     e( 50 - 50) =     21.04276  eV     1   --> A              
     e( 51 - 51) =     21.35662  eV     1   --> A              
     e( 52 - 52) =     21.72880  eV     1   --> A              
     e( 53 - 53) =     22.21493  eV     1   --> A              
     e( 54 - 54) =     22.54469  eV     1   --> A              
     e( 55 - 55) =     22.90134  eV     1   --> A              
     e( 56 - 56) =     23.30909  eV     1   --> A              
     e( 57 - 57) =     23.98071  eV     1   --> A              
     e( 58 - 58) =     24.41057  eV     1   --> A              
     e( 59 - 59) =     24.47799  eV     1   --> A              
     e( 60 - 60) =     24.73389  eV     1   --> A              
     e( 61 - 61) =     24.83026  eV     1   --> A              
     e( 62 - 62) =     25.03402  eV     1   --> A              
     e( 63 - 63) =     25.62119  eV     1   --> A              
     e( 64 - 64) =     25.87772  eV     1   --> A              
     e( 65 - 65) =     26.76354  eV     1   --> A              
     e( 66 - 66) =     27.32825  eV     1   --> A              
     e( 67 - 67) =     27.58336  eV     1   --> A              
     e( 68 - 68) =     27.89327  eV     1   --> A              
     e( 69 - 69) =     28.34032  eV     1   --> A              
     e( 70 - 70) =     28.41983  eV     1   --> A              
     e( 71 - 71) =     29.24167  eV     1   --> A              
     e( 72 - 72) =     29.44959  eV     1   --> A              

 **************************************************************************

 **************************************************************************

                    xk=(   0.07698,  -0.04446,  -0.00000  )

     Band symmetry, C_1 (1)     point group:

     e(  1 -  1) =    -13.75509  eV     1   --> A              
     e(  2 -  2) =    -13.75375  eV     1   --> A              
     e(  3 -  3) =     -8.31381  eV     1   --> A              
     e(  4 -  4) =     -8.30230  eV     1   --> A              
     e(  5 -  5) =     -0.86968  eV     1   --> A              
     e(  6 -  6) =     -0.39064  eV     1   --> A              
     e(  7 -  7) =      0.75313  eV     1   --> A              
     e(  8 -  8) =      0.91258  eV     1   --> A              
     e(  9 -  9) =      1.04985  eV     1   --> A              
     e( 10 - 10) =      1.17233  eV     1   --> A              
     e( 11 - 11) =      1.17319  eV     1   --> A              
     e( 12 - 12) =      2.13779  eV     1   --> A              
     e( 13 - 13) =      3.51579  eV     1   --> A              
     e( 14 - 14) =      4.89510  eV     1   --> A              
     e( 15 - 15) =      4.92921  eV     1   --> A              
     e( 16 - 16) =      5.03237  eV     1   --> A              
     e( 17 - 17) =      5.27055  eV     1   --> A              
     e( 18 - 18) =      5.27327  eV     1   --> A              
     e( 19 - 19) =      6.98882  eV     1   --> A              
     e( 20 - 20) =      8.48027  eV     1   --> A              
     e( 21 - 21) =     11.06444  eV     1   --> A              
     e( 22 - 22) =     11.95209  eV     1   --> A              
     e( 23 - 23) =     12.09945  eV     1   --> A              
     e( 24 - 24) =     12.44915  eV     1   --> A              
     e( 25 - 25) =     12.52473  eV     1   --> A              
     e( 26 - 26) =     13.04153  eV     1   --> A              
     e( 27 - 27) =     13.13643  eV     1   --> A              
     e( 28 - 28) =     13.46594  eV     1   --> A              
     e( 29 - 29) =     13.86355  eV     1   --> A              
     e( 30 - 30) =     14.10024  eV     1   --> A              
     e( 31 - 31) =     14.52280  eV     1   --> A              
     e( 32 - 32) =     14.68804  eV     1   --> A              
     e( 33 - 33) =     15.30087  eV     1   --> A              
     e( 34 - 34) =     15.47213  eV     1   --> A              
     e( 35 - 35) =     15.48976  eV     1   --> A              
     e( 36 - 36) =     15.88023  eV     1   --> A              
     e( 37 - 37) =     16.38696  eV     1   --> A              
     e( 38 - 38) =     17.16505  eV     1   --> A              
     e( 39 - 39) =     18.04919  eV     1   --> A              
     e( 40 - 40) =     18.08244  eV     1   --> A              
     e( 41 - 41) =     18.17046  eV     1   --> A              
     e( 42 - 42) =     18.40265  eV     1   --> A              
     e( 43 - 43) =     19.22442  eV     1   --> A              
     e( 44 - 44) =     19.33200  eV     1   --> A              
     e( 45 - 45) =     19.87107  eV     1   --> A              
     e( 46 - 46) =     20.32589  eV     1   --> A              
     e( 47 - 47) =     20.56208  eV     1   --> A              
     e( 48 - 48) =     20.69303  eV     1   --> A              
     e( 49 - 49) =     20.87195  eV     1   --> A              
     e( 50 - 50) =     21.12396  eV     1   --> A              
     e( 51 - 51) =     21.37649  eV     1   --> A              
     e( 52 - 52) =     21.83732  eV     1   --> A              
     e( 53 - 53) =     22.32016  eV     1   --> A              
     e( 54 - 54) =     22.46397  eV     1   --> A              
     e( 55 - 55) =     22.98105  eV     1   --> A              
     e( 56 - 56) =     23.42704  eV     1   --> A              
     e( 57 - 57) =     23.90182  eV     1   --> A              
     e( 58 - 58) =     24.44084  eV     1   --> A              
     e( 59 - 59) =     24.53604  eV     1   --> A              
     e( 60 - 60) =     24.82158  eV     1   --> A              
     e( 61 - 61) =     24.86652  eV     1   --> A              
     e( 62 - 62) =     25.32898  eV     1   --> A              
     e( 63 - 63) =     25.49310  eV     1   --> A              
     e( 64 - 64) =     25.81221  eV     1   --> A              
     e( 65 - 65) =     26.99865  eV     1   --> A              
     e( 66 - 66) =     27.37646  eV     1   --> A              
     e( 67 - 67) =     27.76593  eV     1   --> A              
     e( 68 - 68) =     27.96593  eV     1   --> A              
     e( 69 - 69) =     28.44575  eV     1   --> A              
     e( 70 - 70) =     28.46382  eV     1   --> A              
     e( 71 - 71) =     29.10637  eV     1   --> A              
     e( 72 - 72) =     29.33519  eV     1   --> A              

 **************************************************************************

 **************************************************************************

                    xk=(   0.09622,  -0.05558,  -0.00000  )

     Band symmetry, C_1 (1)     point group:

     e(  1 -  1) =    -13.73964  eV     1   --> A              
     e(  2 -  2) =    -13.73832  eV     1   --> A              
     e(  3 -  3) =     -8.27171  eV     1   --> A              
     e(  4 -  4) =     -8.26047  eV     1   --> A              
     e(  5 -  5) =     -0.82557  eV     1   --> A              
     e(  6 -  6) =     -0.38251  eV     1   --> A              
     e(  7 -  7) =      0.77913  eV     1   --> A              
     e(  8 -  8) =      0.78635  eV     1   --> A              
     e(  9 -  9) =      0.98075  eV     1   --> A              
     e( 10 - 10) =      1.15316  eV     1   --> A              
     e( 11 - 11) =      1.15410  eV     1   --> A              
     e( 12 - 12) =      2.16913  eV     1   --> A              
     e( 13 - 13) =      3.58892  eV     1   --> A              
     e( 14 - 14) =      4.65936  eV     1   --> A              
     e( 15 - 15) =      4.71343  eV     1   --> A              
     e( 16 - 16) =      5.05537  eV     1   --> A              
     e( 17 - 17) =      5.20269  eV     1   --> A              
     e( 18 - 18) =      5.20547  eV     1   --> A              
     e( 19 - 19) =      7.10462  eV     1   --> A              
     e( 20 - 20) =      8.57025  eV     1   --> A              
     e( 21 - 21) =     11.03357  eV     1   --> A              
     e( 22 - 22) =     12.09529  eV     1   --> A              
     e( 23 - 23) =     12.22478  eV     1   --> A              
     e( 24 - 24) =     12.24536  eV     1   --> A              
     e( 25 - 25) =     12.38596  eV     1   --> A              
     e( 26 - 26) =     13.08859  eV     1   --> A              
     e( 27 - 27) =     13.21265  eV     1   --> A              
     e( 28 - 28) =     13.49029  eV     1   --> A              
     e( 29 - 29) =     13.66746  eV     1   --> A              
     e( 30 - 30) =     13.90680  eV     1   --> A              
     e( 31 - 31) =     14.56837  eV     1   --> A              
     e( 32 - 32) =     14.75731  eV     1   --> A              
     e( 33 - 33) =     15.16717  eV     1   --> A              
     e( 34 - 34) =     15.26328  eV     1   --> A              
     e( 35 - 35) =     15.47020  eV     1   --> A              
     e( 36 - 36) =     15.73028  eV     1   --> A              
     e( 37 - 37) =     16.33593  eV     1   --> A              
     e( 38 - 38) =     17.09753  eV     1   --> A              
     e( 39 - 39) =     17.98968  eV     1   --> A              
     e( 40 - 40) =     18.14696  eV     1   --> A              
     e( 41 - 41) =     18.21769  eV     1   --> A              
     e( 42 - 42) =     18.55117  eV     1   --> A              
     e( 43 - 43) =     19.35514  eV     1   --> A              
     e( 44 - 44) =     19.62080  eV     1   --> A              
     e( 45 - 45) =     20.05066  eV     1   --> A              
     e( 46 - 46) =     20.25440  eV     1   --> A              
     e( 47 - 47) =     20.51273  eV     1   --> A              
     e( 48 - 48) =     20.71678  eV     1   --> A              
     e( 49 - 49) =     20.89281  eV     1   --> A              
     e( 50 - 50) =     21.43055  eV     1   --> A              
     e( 51 - 51) =     21.43592  eV     1   --> A              
     e( 52 - 52) =     21.93298  eV     1   --> A              
     e( 53 - 53) =     22.37988  eV     1   --> A              
     e( 54 - 54) =     22.42966  eV     1   --> A              
     e( 55 - 55) =     23.13116  eV     1   --> A              
     e( 56 - 56) =     23.52118  eV     1   --> A              
     e( 57 - 57) =     23.84363  eV     1   --> A              
     e( 58 - 58) =     24.51573  eV     1   --> A              
     e( 59 - 59) =     24.63095  eV     1   --> A              
     e( 60 - 60) =     24.84110  eV     1   --> A              
     e( 61 - 61) =     24.93512  eV     1   --> A              
     e( 62 - 62) =     25.45068  eV     1   --> A              
     e( 63 - 63) =     25.65841  eV     1   --> A              
     e( 64 - 64) =     25.73398  eV     1   --> A              
     e( 65 - 65) =     27.22321  eV     1   --> A              
     e( 66 - 66) =     27.47446  eV     1   --> A              
     e( 67 - 67) =     27.85460  eV     1   --> A              
     e( 68 - 68) =     28.09066  eV     1   --> A              
     e( 69 - 69) =     28.51672  eV     1   --> A              
     e( 70 - 70) =     28.62596  eV     1   --> A              
     e( 71 - 71) =     28.95027  eV     1   --> A              
     e( 72 - 72) =     29.19852  eV     1   --> A              

 **************************************************************************

 **************************************************************************

                    xk=(   0.11546,  -0.06670,  -0.00000  )

     Band symmetry, C_1 (1)     point group:

     e(  1 -  1) =    -13.72113  eV     1   --> A              
     e(  2 -  2) =    -13.71983  eV     1   --> A              
     e(  3 -  3) =     -8.22066  eV     1   --> A              
     e(  4 -  4) =     -8.20975  eV     1   --> A              
     e(  5 -  5) =     -0.77288  eV     1   --> A              
     e(  6 -  6) =     -0.37936  eV     1   --> A              
     e(  7 -  7) =      0.63573  eV     1   --> A              
     e(  8 -  8) =      0.82049  eV     1   --> A              
     e(  9 -  9) =      0.91774  eV     1   --> A              
     e( 10 - 10) =      1.12935  eV     1   --> A              
     e( 11 - 11) =      1.13048  eV     1   --> A              
     e( 12 - 12) =      2.20024  eV     1   --> A              
     e( 13 - 13) =      3.65635  eV     1   --> A              
     e( 14 - 14) =      4.39739  eV     1   --> A              
     e( 15 - 15) =      4.48875  eV     1   --> A              
     e( 16 - 16) =      5.07912  eV     1   --> A              
     e( 17 - 17) =      5.11932  eV     1   --> A              
     e( 18 - 18) =      5.12189  eV     1   --> A              
     e( 19 - 19) =      7.24060  eV     1   --> A              
     e( 20 - 20) =      8.67456  eV     1   --> A              
     e( 21 - 21) =     10.99184  eV     1   --> A              
     e( 22 - 22) =     12.01141  eV     1   --> A              
     e( 23 - 23) =     12.15004  eV     1   --> A              
     e( 24 - 24) =     12.24559  eV     1   --> A              
     e( 25 - 25) =     12.42714  eV     1   --> A              
     e( 26 - 26) =     13.07939  eV     1   --> A              
     e( 27 - 27) =     13.24583  eV     1   --> A              
     e( 28 - 28) =     13.40823  eV     1   --> A              
     e( 29 - 29) =     13.59873  eV     1   --> A              
     e( 30 - 30) =     13.71499  eV     1   --> A              
     e( 31 - 31) =     14.64323  eV     1   --> A              
     e( 32 - 32) =     14.83640  eV     1   --> A              
     e( 33 - 33) =     15.02653  eV     1   --> A              
     e( 34 - 34) =     15.12631  eV     1   --> A              
     e( 35 - 35) =     15.50746  eV     1   --> A              
     e( 36 - 36) =     15.54941  eV     1   --> A              
     e( 37 - 37) =     16.28841  eV     1   --> A              
     e( 38 - 38) =     17.01247  eV     1   --> A              
     e( 39 - 39) =     17.84766  eV     1   --> A              
     e( 40 - 40) =     18.11984  eV     1   --> A              
     e( 41 - 41) =     18.39490  eV     1   --> A              
     e( 42 - 42) =     18.67365  eV     1   --> A              
     e( 43 - 43) =     19.48774  eV     1   --> A              
     e( 44 - 44) =     19.94742  eV     1   --> A              
     e( 45 - 45) =     20.20789  eV     1   --> A              
     e( 46 - 46) =     20.21935  eV     1   --> A              
     e( 47 - 47) =     20.42820  eV     1   --> A              
     e( 48 - 48) =     20.62714  eV     1   --> A              
     e( 49 - 49) =     21.05075  eV     1   --> A              
     e( 50 - 50) =     21.52078  eV     1   --> A              
     e( 51 - 51) =     21.76806  eV     1   --> A              
     e( 52 - 52) =     22.06272  eV     1   --> A              
     e( 53 - 53) =     22.35602  eV     1   --> A              
     e( 54 - 54) =     22.46407  eV     1   --> A              
     e( 55 - 55) =     23.35671  eV     1   --> A              
     e( 56 - 56) =     23.60279  eV     1   --> A              
     e( 57 - 57) =     23.82034  eV     1   --> A              
     e( 58 - 58) =     24.62354  eV     1   --> A              
     e( 59 - 59) =     24.71658  eV     1   --> A              
     e( 60 - 60) =     24.77997  eV     1   --> A              
     e( 61 - 61) =     25.08148  eV     1   --> A              
     e( 62 - 62) =     25.53540  eV     1   --> A              
     e( 63 - 63) =     25.64395  eV     1   --> A              
     e( 64 - 64) =     26.00034  eV     1   --> A              
     e( 65 - 65) =     27.36289  eV     1   --> A              
     e( 66 - 66) =     27.67872  eV     1   --> A              
     e( 67 - 67) =     27.82233  eV     1   --> A              
     e( 68 - 68) =     28.34468  eV     1   --> A              
     e( 69 - 69) =     28.57785  eV     1   --> A              
     e( 70 - 70) =     28.77288  eV     1   --> A              
     e( 71 - 71) =     28.81662  eV     1   --> A              
     e( 72 - 72) =     29.07103  eV     1   --> A              

 **************************************************************************

 **************************************************************************

                    xk=(   0.13471,  -0.07781,  -0.00000  )

     Band symmetry, C_1 (1)     point group:

     e(  1 -  1) =    -13.69977  eV     1   --> A              
     e(  2 -  2) =    -13.69849  eV     1   --> A              
     e(  3 -  3) =     -8.16092  eV     1   --> A              
     e(  4 -  4) =     -8.15040  eV     1   --> A              
     e(  5 -  5) =     -0.71279  eV     1   --> A              
     e(  6 -  6) =     -0.38562  eV     1   --> A              
     e(  7 -  7) =      0.48787  eV     1   --> A              
     e(  8 -  8) =      0.81823  eV     1   --> A              
     e(  9 -  9) =      0.90551  eV     1   --> A              
     e( 10 - 10) =      1.10066  eV     1   --> A              
     e( 11 - 11) =      1.10236  eV     1   --> A              
     e( 12 - 12) =      2.22969  eV     1   --> A              
     e( 13 - 13) =      3.68967  eV     1   --> A              
     e( 14 - 14) =      4.11889  eV     1   --> A              
     e( 15 - 15) =      4.29015  eV     1   --> A              
     e( 16 - 16) =      5.01868  eV     1   --> A              
     e( 17 - 17) =      5.02224  eV     1   --> A              
     e( 18 - 18) =      5.10277  eV     1   --> A              
     e( 19 - 19) =      7.39451  eV     1   --> A              
     e( 20 - 20) =      8.79030  eV     1   --> A              
     e( 21 - 21) =     10.93776  eV     1   --> A              
     e( 22 - 22) =     11.78055  eV     1   --> A              
     e( 23 - 23) =     11.97553  eV     1   --> A              
     e( 24 - 24) =     12.36669  eV     1   --> A              
     e( 25 - 25) =     12.54696  eV     1   --> A              
     e( 26 - 26) =     12.99590  eV     1   --> A              
     e( 27 - 27) =     13.19168  eV     1   --> A              
     e( 28 - 28) =     13.23324  eV     1   --> A              
     e( 29 - 29) =     13.53860  eV     1   --> A              
     e( 30 - 30) =     13.63164  eV     1   --> A              
     e( 31 - 31) =     14.76186  eV     1   --> A              
     e( 32 - 32) =     14.82093  eV     1   --> A              
     e( 33 - 33) =     15.07118  eV     1   --> A              
     e( 34 - 34) =     15.07262  eV     1   --> A              
     e( 35 - 35) =     15.35956  eV     1   --> A              
     e( 36 - 36) =     15.54985  eV     1   --> A              
     e( 37 - 37) =     16.25633  eV     1   --> A              
     e( 38 - 38) =     16.93752  eV     1   --> A              
     e( 39 - 39) =     17.67414  eV     1   --> A              
     e( 40 - 40) =     18.08227  eV     1   --> A              
     e( 41 - 41) =     18.53302  eV     1   --> A              
     e( 42 - 42) =     18.77197  eV     1   --> A              
     e( 43 - 43) =     19.60409  eV     1   --> A              
     e( 44 - 44) =     20.22635  eV     1   --> A              
     e( 45 - 45) =     20.24252  eV     1   --> A              
     e( 46 - 46) =     20.25387  eV     1   --> A              
     e( 47 - 47) =     20.43772  eV     1   --> A              
     e( 48 - 48) =     20.62158  eV     1   --> A              
     e( 49 - 49) =     21.17126  eV     1   --> A              
     e( 50 - 50) =     21.57737  eV     1   --> A              
     e( 51 - 51) =     22.10288  eV     1   --> A              
     e( 52 - 52) =     22.25625  eV     1   --> A              
     e( 53 - 53) =     22.31448  eV     1   --> A              
     e( 54 - 54) =     22.57826  eV     1   --> A              
     e( 55 - 55) =     23.59578  eV     1   --> A              
     e( 56 - 56) =     23.70678  eV     1   --> A              
     e( 57 - 57) =     23.85284  eV     1   --> A              
     e( 58 - 58) =     24.55242  eV     1   --> A              
     e( 59 - 59) =     24.71675  eV     1   --> A              
     e( 60 - 60) =     24.97958  eV     1   --> A              
     e( 61 - 61) =     25.26968  eV     1   --> A              
     e( 62 - 62) =     25.56967  eV     1   --> A              
     e( 63 - 63) =     25.70901  eV     1   --> A              
     e( 64 - 64) =     26.31359  eV     1   --> A              
     e( 65 - 65) =     27.44394  eV     1   --> A              
     e( 66 - 66) =     27.79608  eV     1   --> A              
     e( 67 - 67) =     27.92997  eV     1   --> A              
     e( 68 - 68) =     28.62175  eV     1   --> A              
     e( 69 - 69) =     28.63376  eV     1   --> A              
     e( 70 - 70) =     28.75134  eV     1   --> A              
     e( 71 - 71) =     28.76693  eV     1   --> A              
     e( 72 - 72) =     29.05044  eV     1   --> A              

 **************************************************************************

 **************************************************************************

                    xk=(   0.15395,  -0.08893,  -0.00000  )

     Band symmetry, C_1 (1)     point group:

     e(  1 -  1) =    -13.67582  eV     1   --> A              
     e(  2 -  2) =    -13.67457  eV     1   --> A              
     e(  3 -  3) =     -8.09280  eV     1   --> A              
     e(  4 -  4) =     -8.08272  eV     1   --> A              
     e(  5 -  5) =     -0.64745  eV     1   --> A              
     e(  6 -  6) =     -0.40597  eV     1   --> A              
     e(  7 -  7) =      0.34098  eV     1   --> A              
     e(  8 -  8) =      0.77939  eV     1   --> A              
     e(  9 -  9) =      0.95073  eV     1   --> A              
     e( 10 - 10) =      1.06689  eV     1   --> A              
     e( 11 - 11) =      1.07031  eV     1   --> A              
     e( 12 - 12) =      2.25528  eV     1   --> A              
     e( 13 - 13) =      3.62735  eV     1   --> A              
     e( 14 - 14) =      3.83127  eV     1   --> A              
     e( 15 - 15) =      4.18583  eV     1   --> A              
     e( 16 - 16) =      4.90310  eV     1   --> A              
     e( 17 - 17) =      4.90689  eV     1   --> A              
     e( 18 - 18) =      5.12245  eV     1   --> A              
     e( 19 - 19) =      7.56399  eV     1   --> A              
     e( 20 - 20) =      8.91415  eV     1   --> A              
     e( 21 - 21) =     10.86920  eV     1   --> A              
     e( 22 - 22) =     11.54071  eV     1   --> A              
     e( 23 - 23) =     11.79505  eV     1   --> A              
     e( 24 - 24) =     12.46612  eV     1   --> A              
     e( 25 - 25) =     12.64899  eV     1   --> A              
     e( 26 - 26) =     12.86098  eV     1   --> A              
     e( 27 - 27) =     13.05293  eV     1   --> A              
     e( 28 - 28) =     13.05741  eV     1   --> A              
     e( 29 - 29) =     13.38694  eV     1   --> A              
     e( 30 - 30) =     13.64408  eV     1   --> A              
     e( 31 - 31) =     14.74537  eV     1   --> A              
     e( 32 - 32) =     14.83070  eV     1   --> A              
     e( 33 - 33) =     15.09191  eV     1   --> A              
     e( 34 - 34) =     15.26573  eV     1   --> A              
     e( 35 - 35) =     15.26609  eV     1   --> A              
     e( 36 - 36) =     15.61013  eV     1   --> A              
     e( 37 - 37) =     16.25186  eV     1   --> A              
     e( 38 - 38) =     16.88331  eV     1   --> A              
     e( 39 - 39) =     17.47766  eV     1   --> A              
     e( 40 - 40) =     18.03402  eV     1   --> A              
     e( 41 - 41) =     18.61704  eV     1   --> A              
     e( 42 - 42) =     18.84133  eV     1   --> A              
     e( 43 - 43) =     19.69583  eV     1   --> A              
     e( 44 - 44) =     20.14524  eV     1   --> A              
     e( 45 - 45) =     20.32198  eV     1   --> A              
     e( 46 - 46) =     20.32320  eV     1   --> A              
     e( 47 - 47) =     20.61119  eV     1   --> A              
     e( 48 - 48) =     20.79237  eV     1   --> A              
     e( 49 - 49) =     21.29781  eV     1   --> A              
     e( 50 - 50) =     21.56172  eV     1   --> A              
     e( 51 - 51) =     22.16973  eV     1   --> A              
     e( 52 - 52) =     22.43755  eV     1   --> A              
     e( 53 - 53) =     22.63543  eV     1   --> A              
     e( 54 - 54) =     22.75411  eV     1   --> A              
     e( 55 - 55) =     23.75344  eV     1   --> A              
     e( 56 - 56) =     23.87130  eV     1   --> A              
     e( 57 - 57) =     23.98637  eV     1   --> A              
     e( 58 - 58) =     24.39363  eV     1   --> A              
     e( 59 - 59) =     24.74879  eV     1   --> A              
     e( 60 - 60) =     25.24100  eV     1   --> A              
     e( 61 - 61) =     25.45219  eV     1   --> A              
     e( 62 - 62) =     25.58001  eV     1   --> A              
     e( 63 - 63) =     25.93462  eV     1   --> A              
     e( 64 - 64) =     26.55518  eV     1   --> A              
     e( 65 - 65) =     27.51085  eV     1   --> A              
     e( 66 - 66) =     27.83019  eV     1   --> A              
     e( 67 - 67) =     28.12919  eV     1   --> A              
     e( 68 - 68) =     28.61113  eV     1   --> A              
     e( 69 - 69) =     28.62199  eV     1   --> A              
     e( 70 - 70) =     28.87670  eV     1   --> A              
     e( 71 - 71) =     28.92767  eV     1   --> A              
     e( 72 - 72) =     29.10074  eV     1   --> A              

 **************************************************************************

 **************************************************************************

                    xk=(   0.17319,  -0.10004,  -0.00000  )

     Band symmetry, C_1 (1)     point group:

     e(  1 -  1) =    -13.64957  eV     1   --> A              
     e(  2 -  2) =    -13.64834  eV     1   --> A              
     e(  3 -  3) =     -8.01669  eV     1   --> A              
     e(  4 -  4) =     -8.00710  eV     1   --> A              
     e(  5 -  5) =     -0.58121  eV     1   --> A              
     e(  6 -  6) =     -0.44390  eV     1   --> A              
     e(  7 -  7) =      0.20203  eV     1   --> A              
     e(  8 -  8) =      0.75277  eV     1   --> A              
     e(  9 -  9) =      1.00014  eV     1   --> A              
     e( 10 - 10) =      1.02777  eV     1   --> A              
     e( 11 - 11) =      1.04400  eV     1   --> A              
     e( 12 - 12) =      2.27300  eV     1   --> A              
     e( 13 - 13) =      3.45334  eV     1   --> A              
     e( 14 - 14) =      3.54078  eV     1   --> A              
     e( 15 - 15) =      4.19956  eV     1   --> A              
     e( 16 - 16) =      4.77176  eV     1   --> A              
     e( 17 - 17) =      4.77625  eV     1   --> A              
     e( 18 - 18) =      5.13856  eV     1   --> A              
     e( 19 - 19) =      7.74664  eV     1   --> A              
     e( 20 - 20) =      9.04220  eV     1   --> A              
     e( 21 - 21) =     10.78331  eV     1   --> A              
     e( 22 - 22) =     11.29560  eV     1   --> A              
     e( 23 - 23) =     11.62025  eV     1   --> A              
     e( 24 - 24) =     12.50750  eV     1   --> A              
     e( 25 - 25) =     12.68493  eV     1   --> A              
     e( 26 - 26) =     12.73818  eV     1   --> A              
     e( 27 - 27) =     12.87841  eV     1   --> A              
     e( 28 - 28) =     12.89862  eV     1   --> A              
     e( 29 - 29) =     13.27381  eV     1   --> A              
     e( 30 - 30) =     13.63196  eV     1   --> A              
     e( 31 - 31) =     14.66547  eV     1   --> A              
     e( 32 - 32) =     14.70583  eV     1   --> A              
     e( 33 - 33) =     15.08589  eV     1   --> A              
     e( 34 - 34) =     15.46210  eV     1   --> A              
     e( 35 - 35) =     15.47092  eV     1   --> A              
     e( 36 - 36) =     15.74613  eV     1   --> A              
     e( 37 - 37) =     16.28850  eV     1   --> A              
     e( 38 - 38) =     16.85995  eV     1   --> A              
     e( 39 - 39) =     17.26586  eV     1   --> A              
     e( 40 - 40) =     17.97742  eV     1   --> A              
     e( 41 - 41) =     18.65272  eV     1   --> A              
     e( 42 - 42) =     18.88100  eV     1   --> A              
     e( 43 - 43) =     19.76399  eV     1   --> A              
     e( 44 - 44) =     20.05173  eV     1   --> A              
     e( 45 - 45) =     20.34302  eV     1   --> A              
     e( 46 - 46) =     20.43131  eV     1   --> A              
     e( 47 - 47) =     20.65252  eV     1   --> A              
     e( 48 - 48) =     21.16158  eV     1   --> A              
     e( 49 - 49) =     21.39023  eV     1   --> A              
     e( 50 - 50) =     21.56388  eV     1   --> A              
     e( 51 - 51) =     22.07854  eV     1   --> A              
     e( 52 - 52) =     22.76850  eV     1   --> A              
     e( 53 - 53) =     22.96690  eV     1   --> A              
     e( 54 - 54) =     23.00778  eV     1   --> A              
     e( 55 - 55) =     23.84814  eV     1   --> A              
     e( 56 - 56) =     24.11548  eV     1   --> A              
     e( 57 - 57) =     24.12862  eV     1   --> A              
     e( 58 - 58) =     24.33153  eV     1   --> A              
     e( 59 - 59) =     24.70602  eV     1   --> A              
     e( 60 - 60) =     25.48246  eV     1   --> A              
     e( 61 - 61) =     25.55497  eV     1   --> A              
     e( 62 - 62) =     25.82296  eV     1   --> A              
     e( 63 - 63) =     26.19252  eV     1   --> A              
     e( 64 - 64) =     26.67867  eV     1   --> A              
     e( 65 - 65) =     27.57442  eV     1   --> A              
     e( 66 - 66) =     27.93908  eV     1   --> A              
     e( 67 - 67) =     28.23519  eV     1   --> A              
     e( 68 - 68) =     28.50429  eV     1   --> A              
     e( 69 - 69) =     28.66263  eV     1   --> A              
     e( 70 - 70) =     29.04753  eV     1   --> A              
     e( 71 - 71) =     29.07416  eV     1   --> A              
     e( 72 - 72) =     29.29073  eV     1   --> A              

 **************************************************************************

 **************************************************************************

                    xk=(   0.19244,  -0.11116,  -0.00000  )

     Band symmetry, C_1 (1)     point group:

     e(  1 -  1) =    -13.62133  eV     1   --> A              
     e(  2 -  2) =    -13.62014  eV     1   --> A              
     e(  3 -  3) =     -7.93303  eV     1   --> A              
     e(  4 -  4) =     -7.92398  eV     1   --> A              
     e(  5 -  5) =     -0.52374  eV     1   --> A              
     e(  6 -  6) =     -0.50023  eV     1   --> A              
     e(  7 -  7) =      0.08266  eV     1   --> A              
     e(  8 -  8) =      0.74702  eV     1   --> A              
     e(  9 -  9) =      0.97972  eV     1   --> A              
     e( 10 - 10) =      0.98312  eV     1   --> A              
     e( 11 - 11) =      1.09050  eV     1   --> A              
     e( 12 - 12) =      2.27478  eV     1   --> A              
     e( 13 - 13) =      3.23898  eV     1   --> A              
     e( 14 - 14) =      3.25301  eV     1   --> A              
     e( 15 - 15) =      4.27054  eV     1   --> A              
     e( 16 - 16) =      4.62540  eV     1   --> A              
     e( 17 - 17) =      4.63172  eV     1   --> A              
     e( 18 - 18) =      5.15044  eV     1   --> A              
     e( 19 - 19) =      7.94021  eV     1   --> A              
     e( 20 - 20) =      9.16972  eV     1   --> A              
     e( 21 - 21) =     10.67702  eV     1   --> A              
     e( 22 - 22) =     11.04721  eV     1   --> A              
     e( 23 - 23) =     11.45787  eV     1   --> A              
     e( 24 - 24) =     12.40204  eV     1   --> A              
     e( 25 - 25) =     12.54896  eV     1   --> A              
     e( 26 - 26) =     12.68783  eV     1   --> A              
     e( 27 - 27) =     12.74343  eV     1   --> A              
     e( 28 - 28) =     12.83924  eV     1   --> A              
     e( 29 - 29) =     13.23391  eV     1   --> A              
     e( 30 - 30) =     13.61328  eV     1   --> A              
     e( 31 - 31) =     14.49223  eV     1   --> A              
     e( 32 - 32) =     14.56997  eV     1   --> A              
     e( 33 - 33) =     15.09687  eV     1   --> A              
     e( 34 - 34) =     15.57177  eV     1   --> A              
     e( 35 - 35) =     15.76711  eV     1   --> A              
     e( 36 - 36) =     15.98346  eV     1   --> A              
     e( 37 - 37) =     16.39704  eV     1   --> A              
     e( 38 - 38) =     16.88986  eV     1   --> A              
     e( 39 - 39) =     17.05205  eV     1   --> A              
     e( 40 - 40) =     17.91737  eV     1   --> A              
     e( 41 - 41) =     18.64522  eV     1   --> A              
     e( 42 - 42) =     18.90588  eV     1   --> A              
     e( 43 - 43) =     19.81533  eV     1   --> A              
     e( 44 - 44) =     19.98699  eV     1   --> A              
     e( 45 - 45) =     20.34424  eV     1   --> A              
     e( 46 - 46) =     20.53152  eV     1   --> A              
     e( 47 - 47) =     20.68567  eV     1   --> A              
     e( 48 - 48) =     21.31610  eV     1   --> A              
     e( 49 - 49) =     21.53929  eV     1   --> A              
     e( 50 - 50) =     21.75519  eV     1   --> A              
     e( 51 - 51) =     22.00703  eV     1   --> A              
     e( 52 - 52) =     23.02991  eV     1   --> A              
     e( 53 - 53) =     23.26847  eV     1   --> A              
     e( 54 - 54) =     23.32171  eV     1   --> A              
     e( 55 - 55) =     23.96783  eV     1   --> A              
     e( 56 - 56) =     24.14709  eV     1   --> A              
     e( 57 - 57) =     24.41295  eV     1   --> A              
     e( 58 - 58) =     24.48395  eV     1   --> A              
     e( 59 - 59) =     24.62268  eV     1   --> A              
     e( 60 - 60) =     25.50859  eV     1   --> A              
     e( 61 - 61) =     25.90197  eV     1   --> A              
     e( 62 - 62) =     26.12702  eV     1   --> A              
     e( 63 - 63) =     26.46687  eV     1   --> A              
     e( 64 - 64) =     26.68636  eV     1   --> A              
     e( 65 - 65) =     27.63796  eV     1   --> A              
     e( 66 - 66) =     28.00628  eV     1   --> A              
     e( 67 - 67) =     28.30028  eV     1   --> A              
     e( 68 - 68) =     28.56530  eV     1   --> A              
     e( 69 - 69) =     28.73649  eV     1   --> A              
     e( 70 - 70) =     29.02554  eV     1   --> A              
     e( 71 - 71) =     29.28423  eV     1   --> A              
     e( 72 - 72) =     29.57234  eV     1   --> A              

 **************************************************************************

 **************************************************************************

                    xk=(   0.21168,  -0.12228,  -0.00001  )

     Band symmetry, C_1 (1)     point group:

     e(  1 -  1) =    -13.59146  eV     1   --> A              
     e(  2 -  2) =    -13.59029  eV     1   --> A              
     e(  3 -  3) =     -7.84238  eV     1   --> A              
     e(  4 -  4) =     -7.83391  eV     1   --> A              
     e(  5 -  5) =     -0.57271  eV     1   --> A              
     e(  6 -  6) =     -0.49561  eV     1   --> A              
     e(  7 -  7) =      0.00505  eV     1   --> A              
     e(  8 -  8) =      0.76047  eV     1   --> A              
     e(  9 -  9) =      0.93263  eV     1   --> A              
     e( 10 - 10) =      0.93424  eV     1   --> A              
     e( 11 - 11) =      1.16447  eV     1   --> A              
     e( 12 - 12) =      2.24475  eV     1   --> A              
     e( 13 - 13) =      2.97323  eV     1   --> A              
     e( 14 - 14) =      3.04025  eV     1   --> A              
     e( 15 - 15) =      4.35385  eV     1   --> A              
     e( 16 - 16) =      4.46498  eV     1   --> A              
     e( 17 - 17) =      4.48179  eV     1   --> A              
     e( 18 - 18) =      5.15772  eV     1   --> A              
     e( 19 - 19) =      8.14259  eV     1   --> A              
     e( 20 - 20) =      9.29071  eV     1   --> A              
     e( 21 - 21) =     10.54856  eV     1   --> A              
     e( 22 - 22) =     10.79729  eV     1   --> A              
     e( 23 - 23) =     11.31242  eV     1   --> A              
     e( 24 - 24) =     12.20982  eV     1   --> A              
     e( 25 - 25) =     12.33925  eV     1   --> A              
     e( 26 - 26) =     12.54481  eV     1   --> A              
     e( 27 - 27) =     12.76790  eV     1   --> A              
     e( 28 - 28) =     12.78935  eV     1   --> A              
     e( 29 - 29) =     13.28297  eV     1   --> A              
     e( 30 - 30) =     13.60608  eV     1   --> A              
     e( 31 - 31) =     14.26421  eV     1   --> A              
     e( 32 - 32) =     14.45672  eV     1   --> A              
     e( 33 - 33) =     15.11013  eV     1   --> A              
     e( 34 - 34) =     15.63751  eV     1   --> A              
     e( 35 - 35) =     16.02257  eV     1   --> A              
     e( 36 - 36) =     16.17362  eV     1   --> A              
     e( 37 - 37) =     16.58909  eV     1   --> A              
     e( 38 - 38) =     16.90292  eV     1   --> A              
     e( 39 - 39) =     17.01755  eV     1   --> A              
     e( 40 - 40) =     17.86400  eV     1   --> A              
     e( 41 - 41) =     18.59867  eV     1   --> A              
     e( 42 - 42) =     18.93406  eV     1   --> A              
     e( 43 - 43) =     19.85751  eV     1   --> A              
     e( 44 - 44) =     19.95445  eV     1   --> A              
     e( 45 - 45) =     20.33721  eV     1   --> A              
     e( 46 - 46) =     20.58098  eV     1   --> A              
     e( 47 - 47) =     20.72709  eV     1   --> A              
     e( 48 - 48) =     21.22514  eV     1   --> A              
     e( 49 - 49) =     21.89703  eV     1   --> A              
     e( 50 - 50) =     21.95123  eV     1   --> A              
     e( 51 - 51) =     22.02522  eV     1   --> A              
     e( 52 - 52) =     23.22575  eV     1   --> A              
     e( 53 - 53) =     23.44270  eV     1   --> A              
     e( 54 - 54) =     23.64899  eV     1   --> A              
     e( 55 - 55) =     24.11919  eV     1   --> A              
     e( 56 - 56) =     24.31140  eV     1   --> A              
     e( 57 - 57) =     24.46418  eV     1   --> A              
     e( 58 - 58) =     24.70458  eV     1   --> A              
     e( 59 - 59) =     24.79706  eV     1   --> A              
     e( 60 - 60) =     25.54736  eV     1   --> A              
     e( 61 - 61) =     26.25507  eV     1   --> A              
     e( 62 - 62) =     26.45059  eV     1   --> A              
     e( 63 - 63) =     26.62249  eV     1   --> A              
     e( 64 - 64) =     26.74096  eV     1   --> A              
     e( 65 - 65) =     27.70110  eV     1   --> A              
     e( 66 - 66) =     27.95712  eV     1   --> A              
     e( 67 - 67) =     28.38388  eV     1   --> A              
     e( 68 - 68) =     28.81346  eV     1   --> A              
     e( 69 - 69) =     28.81715  eV     1   --> A              
     e( 70 - 70) =     28.99346  eV     1   --> A              
     e( 71 - 71) =     29.46287  eV     1   --> A              
     e( 72 - 72) =     29.81620  eV     1   --> A              

 **************************************************************************

 **************************************************************************

                    xk=(   0.23093,  -0.13339,  -0.00001  )

     Band symmetry, C_1 (1)     point group:

     e(  1 -  1) =    -13.56033  eV     1   --> A              
     e(  2 -  2) =    -13.55918  eV     1   --> A              
     e(  3 -  3) =     -7.74534  eV     1   --> A              
     e(  4 -  4) =     -7.73749  eV     1   --> A              
     e(  5 -  5) =     -0.65683  eV     1   --> A              
     e(  6 -  6) =     -0.52215  eV     1   --> A              
     e(  7 -  7) =     -0.00459  eV     1   --> A              
     e(  8 -  8) =      0.78333  eV     1   --> A              
     e(  9 -  9) =      0.87661  eV     1   --> A              
     e( 10 - 10) =      0.88745  eV     1   --> A              
     e( 11 - 11) =      1.24526  eV     1   --> A              
     e( 12 - 12) =      2.16001  eV     1   --> A              
     e( 13 - 13) =      2.70748  eV     1   --> A              
     e( 14 - 14) =      2.89519  eV     1   --> A              
     e( 15 - 15) =      4.28388  eV     1   --> A              
     e( 16 - 16) =      4.29178  eV     1   --> A              
     e( 17 - 17) =      4.48022  eV     1   --> A              
     e( 18 - 18) =      5.16017  eV     1   --> A              
     e( 19 - 19) =      8.35179  eV     1   --> A              
     e( 20 - 20) =      9.39721  eV     1   --> A              
     e( 21 - 21) =     10.39990  eV     1   --> A              
     e( 22 - 22) =     10.54763  eV     1   --> A              
     e( 23 - 23) =     11.18482  eV     1   --> A              
     e( 24 - 24) =     11.99196  eV     1   --> A              
     e( 25 - 25) =     12.13462  eV     1   --> A              
     e( 26 - 26) =     12.42236  eV     1   --> A              
     e( 27 - 27) =     12.72447  eV     1   --> A              
     e( 28 - 28) =     12.78035  eV     1   --> A              
     e( 29 - 29) =     13.38549  eV     1   --> A              
     e( 30 - 30) =     13.62480  eV     1   --> A              
     e( 31 - 31) =     14.04249  eV     1   --> A              
     e( 32 - 32) =     14.33243  eV     1   --> A              
     e( 33 - 33) =     15.11409  eV     1   --> A              
     e( 34 - 34) =     15.67375  eV     1   --> A              
     e( 35 - 35) =     16.17225  eV     1   --> A              
     e( 36 - 36) =     16.29009  eV     1   --> A              
     e( 37 - 37) =     16.53655  eV     1   --> A              
     e( 38 - 38) =     17.11534  eV     1   --> A              
     e( 39 - 39) =     17.27702  eV     1   --> A              
     e( 40 - 40) =     17.84342  eV     1   --> A              
     e( 41 - 41) =     18.52303  eV     1   --> A              
     e( 42 - 42) =     18.97502  eV     1   --> A              
     e( 43 - 43) =     19.89171  eV     1   --> A              
     e( 44 - 44) =     19.95331  eV     1   --> A              
     e( 45 - 45) =     20.32916  eV     1   --> A              
     e( 46 - 46) =     20.55824  eV     1   --> A              
     e( 47 - 47) =     20.78271  eV     1   --> A              
     e( 48 - 48) =     21.17785  eV     1   --> A              
     e( 49 - 49) =     21.93337  eV     1   --> A              
     e( 50 - 50) =     22.21778  eV     1   --> A              
     e( 51 - 51) =     22.31016  eV     1   --> A              
     e( 52 - 52) =     23.41916  eV     1   --> A              
     e( 53 - 53) =     23.42262  eV     1   --> A              
     e( 54 - 54) =     23.97555  eV     1   --> A              
     e( 55 - 55) =     24.23230  eV     1   --> A              
     e( 56 - 56) =     24.43536  eV     1   --> A              
     e( 57 - 57) =     24.63372  eV     1   --> A              
     e( 58 - 58) =     25.00282  eV     1   --> A              
     e( 59 - 59) =     25.08614  eV     1   --> A              
     e( 60 - 60) =     25.62639  eV     1   --> A              
     e( 61 - 61) =     26.48713  eV     1   --> A              
     e( 62 - 62) =     26.58483  eV     1   --> A              
     e( 63 - 63) =     26.82096  eV     1   --> A              
     e( 64 - 64) =     26.99871  eV     1   --> A              
     e( 65 - 65) =     27.75958  eV     1   --> A              
     e( 66 - 66) =     27.88922  eV     1   --> A              
     e( 67 - 67) =     28.49695  eV     1   --> A              
     e( 68 - 68) =     28.84252  eV     1   --> A              
     e( 69 - 69) =     28.90554  eV     1   --> A              
     e( 70 - 70) =     29.23745  eV     1   --> A              
     e( 71 - 71) =     29.63106  eV     1   --> A              
     e( 72 - 72) =     29.97506  eV     1   --> A              

 **************************************************************************

 **************************************************************************

                    xk=(   0.25017,  -0.14451,  -0.00001  )

     Band symmetry, C_1 (1)     point group:

     e(  1 -  1) =    -13.52833  eV     1   --> A              
     e(  2 -  2) =    -13.52721  eV     1   --> A              
     e(  3 -  3) =     -7.64267  eV     1   --> A              
     e(  4 -  4) =     -7.63547  eV     1   --> A              
     e(  5 -  5) =     -0.74753  eV     1   --> A              
     e(  6 -  6) =     -0.59827  eV     1   --> A              
     e(  7 -  7) =      0.04900  eV     1   --> A              
     e(  8 -  8) =      0.77973  eV     1   --> A              
     e(  9 -  9) =      0.81474  eV     1   --> A              
     e( 10 - 10) =      0.86861  eV     1   --> A              
     e( 11 - 11) =      1.33032  eV     1   --> A              
     e( 12 - 12) =      2.01174  eV     1   --> A              
     e( 13 - 13) =      2.46329  eV     1   --> A              
     e( 14 - 14) =      2.81986  eV     1   --> A              
     e( 15 - 15) =      4.10484  eV     1   --> A              
     e( 16 - 16) =      4.10736  eV     1   --> A              
     e( 17 - 17) =      4.57887  eV     1   --> A              
     e( 18 - 18) =      5.15772  eV     1   --> A              
     e( 19 - 19) =      8.56586  eV     1   --> A              
     e( 20 - 20) =      9.47809  eV     1   --> A              
     e( 21 - 21) =     10.23823  eV     1   --> A              
     e( 22 - 22) =     10.30021  eV     1   --> A              
     e( 23 - 23) =     11.07223  eV     1   --> A              
     e( 24 - 24) =     11.76800  eV     1   --> A              
     e( 25 - 25) =     11.95892  eV     1   --> A              
     e( 26 - 26) =     12.32538  eV     1   --> A              
     e( 27 - 27) =     12.66343  eV     1   --> A              
     e( 28 - 28) =     12.75785  eV     1   --> A              
     e( 29 - 29) =     13.50975  eV     1   --> A              
     e( 30 - 30) =     13.67614  eV     1   --> A              
     e( 31 - 31) =     13.83914  eV     1   --> A              
     e( 32 - 32) =     14.20741  eV     1   --> A              
     e( 33 - 33) =     15.10532  eV     1   --> A              
     e( 34 - 34) =     15.65749  eV     1   --> A              
     e( 35 - 35) =     16.22847  eV     1   --> A              
     e( 36 - 36) =     16.33414  eV     1   --> A              
     e( 37 - 37) =     16.44071  eV     1   --> A              
     e( 38 - 38) =     17.40411  eV     1   --> A              
     e( 39 - 39) =     17.62754  eV     1   --> A              
     e( 40 - 40) =     17.94559  eV     1   --> A              
     e( 41 - 41) =     18.43142  eV     1   --> A              
     e( 42 - 42) =     19.03129  eV     1   --> A              
     e( 43 - 43) =     19.90998  eV     1   --> A              
     e( 44 - 44) =     19.98060  eV     1   --> A              
     e( 45 - 45) =     20.32902  eV     1   --> A              
     e( 46 - 46) =     20.49895  eV     1   --> A              
     e( 47 - 47) =     20.85253  eV     1   --> A              
     e( 48 - 48) =     21.16686  eV     1   --> A              
     e( 49 - 49) =     21.94320  eV     1   --> A              
     e( 50 - 50) =     22.49051  eV     1   --> A              
     e( 51 - 51) =     22.60447  eV     1   --> A              
     e( 52 - 52) =     23.36569  eV     1   --> A              
     e( 53 - 53) =     23.63247  eV     1   --> A              
     e( 54 - 54) =     24.02219  eV     1   --> A              
     e( 55 - 55) =     24.35326  eV     1   --> A              
     e( 56 - 56) =     24.69857  eV     1   --> A              
     e( 57 - 57) =     24.90167  eV     1   --> A              
     e( 58 - 58) =     25.22745  eV     1   --> A              
     e( 59 - 59) =     25.43313  eV     1   --> A              
     e( 60 - 60) =     25.82794  eV     1   --> A              
     e( 61 - 61) =     26.34289  eV     1   --> A              
     e( 62 - 62) =     26.86110  eV     1   --> A              
     e( 63 - 63) =     27.19291  eV     1   --> A              
     e( 64 - 64) =     27.22935  eV     1   --> A              
     e( 65 - 65) =     27.80898  eV     1   --> A              
     e( 66 - 66) =     27.84290  eV     1   --> A              
     e( 67 - 67) =     28.59052  eV     1   --> A              
     e( 68 - 68) =     28.74736  eV     1   --> A              
     e( 69 - 69) =     29.05081  eV     1   --> A              
     e( 70 - 70) =     29.57263  eV     1   --> A              
     e( 71 - 71) =     29.82554  eV     1   --> A              
     e( 72 - 72) =     30.04020  eV     1   --> A              

 **************************************************************************

 **************************************************************************

                    xk=(   0.26941,  -0.15563,  -0.00001  )

     Band symmetry, C_1 (1)     point group:

     e(  1 -  1) =    -13.49587  eV     1   --> A              
     e(  2 -  2) =    -13.49477  eV     1   --> A              
     e(  3 -  3) =     -7.53521  eV     1   --> A              
     e(  4 -  4) =     -7.52869  eV     1   --> A              
     e(  5 -  5) =     -0.84010  eV     1   --> A              
     e(  6 -  6) =     -0.69674  eV     1   --> A              
     e(  7 -  7) =      0.13814  eV     1   --> A              
     e(  8 -  8) =      0.72615  eV     1   --> A              
     e(  9 -  9) =      0.74727  eV     1   --> A              
     e( 10 - 10) =      0.89050  eV     1   --> A              
     e( 11 - 11) =      1.41695  eV     1   --> A              
     e( 12 - 12) =      1.82158  eV     1   --> A              
     e( 13 - 13) =      2.25187  eV     1   --> A              
     e( 14 - 14) =      2.79741  eV     1   --> A              
     e( 15 - 15) =      3.91192  eV     1   --> A              
     e( 16 - 16) =      3.91351  eV     1   --> A              
     e( 17 - 17) =      4.68125  eV     1   --> A              
     e( 18 - 18) =      5.15045  eV     1   --> A              
     e( 19 - 19) =      8.78255  eV     1   --> A              
     e( 20 - 20) =      9.51707  eV     1   --> A              
     e( 21 - 21) =     10.05729  eV     1   --> A              
     e( 22 - 22) =     10.07688  eV     1   --> A              
     e( 23 - 23) =     10.97094  eV     1   --> A              
     e( 24 - 24) =     11.54836  eV     1   --> A              
     e( 25 - 25) =     11.82684  eV     1   --> A              
     e( 26 - 26) =     12.24884  eV     1   --> A              
     e( 27 - 27) =     12.61205  eV     1   --> A              
     e( 28 - 28) =     12.70094  eV     1   --> A              
     e( 29 - 29) =     13.58501  eV     1   --> A              
     e( 30 - 30) =     13.72018  eV     1   --> A              
     e( 31 - 31) =     13.75400  eV     1   --> A              
     e( 32 - 32) =     14.09531  eV     1   --> A              
     e( 33 - 33) =     15.08494  eV     1   --> A              
     e( 34 - 34) =     15.55960  eV     1   --> A              
     e( 35 - 35) =     16.23023  eV     1   --> A              
     e( 36 - 36) =     16.25377  eV     1   --> A              
     e( 37 - 37) =     16.51911  eV     1   --> A              
     e( 38 - 38) =     17.51246  eV     1   --> A              
     e( 39 - 39) =     17.99065  eV     1   --> A              
     e( 40 - 40) =     18.27483  eV     1   --> A              
     e( 41 - 41) =     18.33648  eV     1   --> A              
     e( 42 - 42) =     19.10062  eV     1   --> A              
     e( 43 - 43) =     19.90637  eV     1   --> A              
     e( 44 - 44) =     20.03213  eV     1   --> A              
     e( 45 - 45) =     20.34693  eV     1   --> A              
     e( 46 - 46) =     20.46981  eV     1   --> A              
     e( 47 - 47) =     20.93457  eV     1   --> A              
     e( 48 - 48) =     21.16691  eV     1   --> A              
     e( 49 - 49) =     21.98289  eV     1   --> A              
     e( 50 - 50) =     22.71401  eV     1   --> A              
     e( 51 - 51) =     22.89087  eV     1   --> A              
     e( 52 - 52) =     23.32192  eV     1   --> A              
     e( 53 - 53) =     23.80650  eV     1   --> A              
     e( 54 - 54) =     23.98791  eV     1   --> A              
     e( 55 - 55) =     24.48205  eV     1   --> A              
     e( 56 - 56) =     25.08789  eV     1   --> A              
     e( 57 - 57) =     25.12329  eV     1   --> A              
     e( 58 - 58) =     25.23398  eV     1   --> A              
     e( 59 - 59) =     25.94050  eV     1   --> A              
     e( 60 - 60) =     26.10974  eV     1   --> A              
     e( 61 - 61) =     26.20715  eV     1   --> A              
     e( 62 - 62) =     27.05335  eV     1   --> A              
     e( 63 - 63) =     27.43191  eV     1   --> A              
     e( 64 - 64) =     27.55773  eV     1   --> A              
     e( 65 - 65) =     27.83912  eV     1   --> A              
     e( 66 - 66) =     27.84092  eV     1   --> A              
     e( 67 - 67) =     28.62357  eV     1   --> A              
     e( 68 - 68) =     28.64768  eV     1   --> A              
     e( 69 - 69) =     29.29170  eV     1   --> A              
     e( 70 - 70) =     29.70175  eV     1   --> A              
     e( 71 - 71) =     29.95318  eV     1   --> A              
     e( 72 - 72) =     30.16685  eV     1   --> A              

 **************************************************************************

 **************************************************************************

                    xk=(   0.28866,  -0.16674,  -0.00001  )

     Band symmetry, C_1 (1)     point group:

     e(  1 -  1) =    -13.46336  eV     1   --> A              
     e(  2 -  2) =    -13.46228  eV     1   --> A              
     e(  3 -  3) =     -7.42395  eV     1   --> A              
     e(  4 -  4) =     -7.41812  eV     1   --> A              
     e(  5 -  5) =     -0.93056  eV     1   --> A              
     e(  6 -  6) =     -0.79953  eV     1   --> A              
     e(  7 -  7) =      0.24257  eV     1   --> A              
     e(  8 -  8) =      0.65491  eV     1   --> A              
     e(  9 -  9) =      0.67494  eV     1   --> A              
     e( 10 - 10) =      0.90612  eV     1   --> A              
     e( 11 - 11) =      1.50035  eV     1   --> A              
     e( 12 - 12) =      1.61809  eV     1   --> A              
     e( 13 - 13) =      2.09072  eV     1   --> A              
     e( 14 - 14) =      2.80382  eV     1   --> A              
     e( 15 - 15) =      3.71030  eV     1   --> A              
     e( 16 - 16) =      3.71208  eV     1   --> A              
     e( 17 - 17) =      4.78184  eV     1   --> A              
     e( 18 - 18) =      5.13865  eV     1   --> A              
     e( 19 - 19) =      8.99787  eV     1   --> A              
     e( 20 - 20) =      9.49185  eV     1   --> A              
     e( 21 - 21) =      9.82316  eV     1   --> A              
     e( 22 - 22) =      9.93559  eV     1   --> A              
     e( 23 - 23) =     10.87989  eV     1   --> A              
     e( 24 - 24) =     11.33929  eV     1   --> A              
     e( 25 - 25) =     11.74686  eV     1   --> A              
     e( 26 - 26) =     12.18743  eV     1   --> A              
     e( 27 - 27) =     12.56829  eV     1   --> A              
     e( 28 - 28) =     12.61661  eV     1   --> A              
     e( 29 - 29) =     13.45925  eV     1   --> A              
     e( 30 - 30) =     13.82865  eV     1   --> A              
     e( 31 - 31) =     13.83996  eV     1   --> A              
     e( 32 - 32) =     14.02680  eV     1   --> A              
     e( 33 - 33) =     15.05678  eV     1   --> A              
     e( 34 - 34) =     15.38749  eV     1   --> A              
     e( 35 - 35) =     16.19768  eV     1   --> A              
     e( 36 - 36) =     16.20279  eV     1   --> A              
     e( 37 - 37) =     16.62308  eV     1   --> A              
     e( 38 - 38) =     17.54005  eV     1   --> A              
     e( 39 - 39) =     18.20644  eV     1   --> A              
     e( 40 - 40) =     18.33173  eV     1   --> A              
     e( 41 - 41) =     18.69865  eV     1   --> A              
     e( 42 - 42) =     19.16982  eV     1   --> A              
     e( 43 - 43) =     19.91064  eV     1   --> A              
     e( 44 - 44) =     20.10308  eV     1   --> A              
     e( 45 - 45) =     20.39496  eV     1   --> A              
     e( 46 - 46) =     20.51423  eV     1   --> A              
     e( 47 - 47) =     21.02858  eV     1   --> A              
     e( 48 - 48) =     21.17110  eV     1   --> A              
     e( 49 - 49) =     22.04527  eV     1   --> A              
     e( 50 - 50) =     22.89536  eV     1   --> A              
     e( 51 - 51) =     23.16036  eV     1   --> A              
     e( 52 - 52) =     23.30369  eV     1   --> A              
     e( 53 - 53) =     23.77941  eV     1   --> A              
     e( 54 - 54) =     24.14959  eV     1   --> A              
     e( 55 - 55) =     24.61483  eV     1   --> A              
     e( 56 - 56) =     25.19126  eV     1   --> A              
     e( 57 - 57) =     25.32836  eV     1   --> A              
     e( 58 - 58) =     25.41086  eV     1   --> A              
     e( 59 - 59) =     26.08155  eV     1   --> A              
[...]
     e( 71 - 71) =     29.16643  eV     1   --> A'             
     e( 72 - 72) =     29.43176  eV     1   --> A''            

 **************************************************************************

 **************************************************************************

                    xk=(   0.05773,   0.00000,  -0.00000  )

     Band symmetry, C_s (m)     point group:

     e(  1 -  1) =    -13.77126  eV     1   --> A'             
     e(  2 -  2) =    -13.76990  eV     1   --> A'             
     e(  3 -  3) =     -8.35740  eV     1   --> A'             
     e(  4 -  4) =     -8.34560  eV     1   --> A'             
     e(  5 -  5) =     -0.91581  eV     1   --> A'             
     e(  6 -  6) =     -0.40388  eV     1   --> A'             
     e(  7 -  7) =      0.71742  eV     1   --> A'             
     e(  8 -  8) =      1.07026  eV     1   --> A'             
     e(  9 -  9) =      1.13433  eV     1   --> A'             
     e( 10 - 10) =      1.19216  eV     1   --> A''            
     e( 11 - 11) =      1.19299  eV     1   --> A''            
     e( 12 - 12) =      2.09663  eV     1   --> A'             
     e( 13 - 13) =      3.42563  eV     1   --> A'             
     e( 14 - 14) =      4.99725  eV     1   --> A'             
     e( 15 - 15) =      5.16916  eV     1   --> A'             
     e( 16 - 16) =      5.18026  eV     1   --> A'             
     e( 17 - 17) =      5.34132  eV     1   --> A''            
     e( 18 - 18) =      5.34405  eV     1   --> A''            
     e( 19 - 19) =      6.86446  eV     1   --> A'             
     e( 20 - 20) =      8.38297  eV     1   --> A'             
     e( 21 - 21) =     11.09140  eV     1   --> A'             
     e( 22 - 22) =     11.75671  eV     1   --> A'             
     e( 23 - 23) =     11.90459  eV     1   --> A'             
     e( 24 - 24) =     12.69423  eV     1   --> A'             
     e( 25 - 25) =     12.73075  eV     1   --> A'             
     e( 26 - 26) =     12.94981  eV     1   --> A''            
     e( 27 - 27) =     13.03036  eV     1   --> A''            
     e( 28 - 28) =     13.42407  eV     1   --> A'             
     e( 29 - 29) =     14.14173  eV     1   --> A'             
     e( 30 - 30) =     14.34760  eV     1   --> A'             
     e( 31 - 31) =     14.47999  eV     1   --> A''            
     e( 32 - 32) =     14.62192  eV     1   --> A''            
     e( 33 - 33) =     15.24929  eV     1   --> A'             
     e( 34 - 34) =     15.69768  eV     1   --> A'             
     e( 35 - 35) =     15.93082  eV     1   --> A'             
     e( 36 - 36) =     15.98816  eV     1   --> A''            
     e( 37 - 37) =     16.45724  eV     1   --> A''            
     e( 38 - 38) =     17.11554  eV     1   --> A'             
     e( 39 - 39) =     17.91998  eV     1   --> A'             
     e( 40 - 40) =     18.10310  eV     1   --> A'             
     e( 41 - 41) =     18.16834  eV     1   --> A''            
     e( 42 - 42) =     18.22914  eV     1   --> A'             
     e( 43 - 43) =     19.04866  eV     1   --> A'             
     e( 44 - 44) =     19.07624  eV     1   --> A''            
     e( 45 - 45) =     19.63963  eV     1   --> A'             
     e( 46 - 46) =     20.30405  eV     1   --> A'             
     e( 47 - 47) =     20.49927  eV     1   --> A'             
     e( 48 - 48) =     20.70284  eV     1   --> A''            
     e( 49 - 49) =     20.72532  eV     1   --> A'             
     e( 50 - 50) =     21.10150  eV     1   --> A'             
     e( 51 - 51) =     21.36033  eV     1   --> A''            
     e( 52 - 52) =     21.68076  eV     1   --> A'             
     e( 53 - 53) =     22.17104  eV     1   --> A'             
     e( 54 - 54) =     22.59566  eV     1   --> A'             
     e( 55 - 55) =     22.87324  eV     1   --> A''            
     e( 56 - 56) =     23.25128  eV     1   --> A'             
     e( 57 - 57) =     24.02242  eV     1   --> A'             
     e( 58 - 58) =     24.42830  eV     1   --> A''            
     e( 59 - 59) =     24.43382  eV     1   --> A'             
     e( 60 - 60) =     24.69422  eV     1   --> A'             
     e( 61 - 61) =     24.82423  eV     1   --> A''            
     e( 62 - 62) =     24.93549  eV     1   --> A'             
     e( 63 - 63) =     25.67606  eV     1   --> A'             
     e( 64 - 64) =     25.90318  eV     1   --> A''            
     e( 65 - 65) =     26.67436  eV     1   --> A'             
     e( 66 - 66) =     27.30852  eV     1   --> A'             
     e( 67 - 67) =     27.52850  eV     1   --> A''            
     e( 68 - 68) =     27.84023  eV     1   --> A'             
     e( 69 - 69) =     28.32695  eV     1   --> A'             
     e( 70 - 70) =     28.40698  eV     1   --> A''            
     e( 71 - 71) =     29.26135  eV     1   --> A'             
     e( 72 - 72) =     29.45197  eV     1   --> A'             

 **************************************************************************

 **************************************************************************

                    xk=(   0.03849,   0.00000,  -0.00000  )

     Band symmetry, C_s (m)     point group:

     e(  1 -  1) =    -13.77789  eV     1   --> A'             
     e(  2 -  2) =    -13.77652  eV     1   --> A'             
     e(  3 -  3) =     -8.37514  eV     1   --> A'             
     e(  4 -  4) =     -8.36323  eV     1   --> A'             
     e(  5 -  5) =     -0.93470  eV     1   --> A'             
     e(  6 -  6) =     -0.41054  eV     1   --> A'             
     e(  7 -  7) =      0.70270  eV     1   --> A'             
     e(  8 -  8) =      1.14291  eV     1   --> A'             
     e(  9 -  9) =      1.17296  eV     1   --> A'             
     e( 10 - 10) =      1.19974  eV     1   --> A''            
     e( 11 - 11) =      1.20057  eV     1   --> A''            
     e( 12 - 12) =      2.07574  eV     1   --> A'             
     e( 13 - 13) =      3.38459  eV     1   --> A'             
     e( 14 - 14) =      4.98374  eV     1   --> A'             
     e( 15 - 15) =      5.28912  eV     1   --> A'             
     e( 16 - 16) =      5.29364  eV     1   --> A'             
     e( 17 - 17) =      5.36804  eV     1   --> A''            
     e( 18 - 18) =      5.37072  eV     1   --> A''            
     e( 19 - 19) =      6.81203  eV     1   --> A'             
     e( 20 - 20) =      8.34200  eV     1   --> A'             
     e( 21 - 21) =     11.10043  eV     1   --> A'             
     e( 22 - 22) =     11.66385  eV     1   --> A'             
     e( 23 - 23) =     11.81357  eV     1   --> A'             
     e( 24 - 24) =     12.79602  eV     1   --> A'             
     e( 25 - 25) =     12.83123  eV     1   --> A'             
     e( 26 - 26) =     12.90945  eV     1   --> A''            
     e( 27 - 27) =     12.98644  eV     1   --> A''            
     e( 28 - 28) =     13.39645  eV     1   --> A'             
     e( 29 - 29) =     14.29108  eV     1   --> A'             
     e( 30 - 30) =     14.46027  eV     1   --> A''            
     e( 31 - 31) =     14.46417  eV     1   --> A'             
     e( 32 - 32) =     14.59457  eV     1   --> A''            
     e( 33 - 33) =     15.18755  eV     1   --> A'             
     e( 34 - 34) =     15.90644  eV     1   --> A'             
     e( 35 - 35) =     16.04041  eV     1   --> A''            
     e( 36 - 36) =     16.13442  eV     1   --> A'             
     e( 37 - 37) =     16.47468  eV     1   --> A''            
     e( 38 - 38) =     16.99474  eV     1   --> A'             
     e( 39 - 39) =     17.93333  eV     1   --> A'             
     e( 40 - 40) =     18.05424  eV     1   --> A'             
     e( 41 - 41) =     18.13323  eV     1   --> A'             
     e( 42 - 42) =     18.14175  eV     1   --> A''            
     e( 43 - 43) =     18.98017  eV     1   --> A'             
     e( 44 - 44) =     19.01385  eV     1   --> A''            
     e( 45 - 45) =     19.53480  eV     1   --> A'             
     e( 46 - 46) =     20.18677  eV     1   --> A'             
     e( 47 - 47) =     20.50438  eV     1   --> A'             
     e( 48 - 48) =     20.63150  eV     1   --> A'             
     e( 49 - 49) =     20.69585  eV     1   --> A''            
     e( 50 - 50) =     21.22775  eV     1   --> A'             
     e( 51 - 51) =     21.35260  eV     1   --> A''            
     e( 52 - 52) =     21.57883  eV     1   --> A'             
     e( 53 - 53) =     22.10855  eV     1   --> A'             
     e( 54 - 54) =     22.67847  eV     1   --> A'             
     e( 55 - 55) =     22.84284  eV     1   --> A''            
     e( 56 - 56) =     23.14795  eV     1   --> A'             
     e( 57 - 57) =     24.08723  eV     1   --> A'             
     e( 58 - 58) =     24.40509  eV     1   --> A''            
     e( 59 - 59) =     24.42002  eV     1   --> A'             
     e( 60 - 60) =     24.61586  eV     1   --> A'             
     e( 61 - 61) =     24.78736  eV     1   --> A''            
     e( 62 - 62) =     24.80109  eV     1   --> A'             
     e( 63 - 63) =     25.80458  eV     1   --> A'             
     e( 64 - 64) =     25.93610  eV     1   --> A''            
     e( 65 - 65) =     26.50608  eV     1   --> A'             
     e( 66 - 66) =     27.29491  eV     1   --> A'             
     e( 67 - 67) =     27.39945  eV     1   --> A''            
     e( 68 - 68) =     27.73628  eV     1   --> A'             
     e( 69 - 69) =     28.33112  eV     1   --> A'             
     e( 70 - 70) =     28.38032  eV     1   --> A''            
     e( 71 - 71) =     29.22947  eV     1   --> A'             
     e( 72 - 72) =     29.50361  eV     1   --> A'             

 **************************************************************************

 **************************************************************************

                    xk=(   0.01924,   0.00000,  -0.00000  )

     Band symmetry, C_s (m)     point group:

     e(  1 -  1) =    -13.78188  eV     1   --> A'             
     e(  2 -  2) =    -13.78052  eV     1   --> A'             
     e(  3 -  3) =     -8.38581  eV     1   --> A'             
     e(  4 -  4) =     -8.37384  eV     1   --> A'             
     e(  5 -  5) =     -0.94609  eV     1   --> A'             
     e(  6 -  6) =     -0.41488  eV     1   --> A'             
     e(  7 -  7) =      0.69383  eV     1   --> A'             
     e(  8 -  8) =      1.18960  eV     1   --> A'             
     e(  9 -  9) =      1.19728  eV     1   --> A'             
     e( 10 - 10) =      1.20433  eV     1   --> A''            
     e( 11 - 11) =      1.20516  eV     1   --> A''            
     e( 12 - 12) =      2.06142  eV     1   --> A'             
     e( 13 - 13) =      3.35861  eV     1   --> A'             
     e( 14 - 14) =      4.97476  eV     1   --> A'             
     e( 15 - 15) =      5.36366  eV     1   --> A'             
     e( 16 - 16) =      5.36523  eV     1   --> A'             
     e( 17 - 17) =      5.38436  eV     1   --> A''            
     e( 18 - 18) =      5.38700  eV     1   --> A''            
     e( 19 - 19) =      6.77980  eV     1   --> A'             
     e( 20 - 20) =      8.31694  eV     1   --> A'             
     e( 21 - 21) =     11.10473  eV     1   --> A'             
     e( 22 - 22) =     11.60263  eV     1   --> A'             
     e( 23 - 23) =     11.75383  eV     1   --> A'             
     e( 24 - 24) =     12.85262  eV     1   --> A'             
     e( 25 - 25) =     12.88419  eV     1   --> A''            
     e( 26 - 26) =     12.91388  eV     1   --> A'             
     e( 27 - 27) =     12.95903  eV     1   --> A''            
     e( 28 - 28) =     13.37080  eV     1   --> A'             
     e( 29 - 29) =     14.39966  eV     1   --> A'             
     e( 30 - 30) =     14.44869  eV     1   --> A''            
     e( 31 - 31) =     14.54153  eV     1   --> A'             
     e( 32 - 32) =     14.57808  eV     1   --> A''            
     e( 33 - 33) =     15.13125  eV     1   --> A'             
     e( 34 - 34) =     16.04029  eV     1   --> A'             
     e( 35 - 35) =     16.07665  eV     1   --> A''            
     e( 36 - 36) =     16.34725  eV     1   --> A'             
     e( 37 - 37) =     16.48545  eV     1   --> A''            
     e( 38 - 38) =     16.83173  eV     1   --> A'             
     e( 39 - 39) =     17.86556  eV     1   --> A'             
     e( 40 - 40) =     18.06404  eV     1   --> A'             
     e( 41 - 41) =     18.09581  eV     1   --> A'             
     e( 42 - 42) =     18.12260  eV     1   --> A''            
     e( 43 - 43) =     18.95890  eV     1   --> A'             
     e( 44 - 44) =     18.97318  eV     1   --> A''            
     e( 45 - 45) =     19.46785  eV     1   --> A'             
     e( 46 - 46) =     20.09440  eV     1   --> A'             
     e( 47 - 47) =     20.42305  eV     1   --> A'             
     e( 48 - 48) =     20.67175  eV     1   --> A'             
     e( 49 - 49) =     20.69594  eV     1   --> A''            
     e( 50 - 50) =     21.31307  eV     1   --> A'             
     e( 51 - 51) =     21.34869  eV     1   --> A''            
     e( 52 - 52) =     21.50434  eV     1   --> A'             
     e( 53 - 53) =     22.06967  eV     1   --> A'             
     e( 54 - 54) =     22.76380  eV     1   --> A'             
     e( 55 - 55) =     22.81965  eV     1   --> A''            
     e( 56 - 56) =     23.05490  eV     1   --> A'             
     e( 57 - 57) =     24.14589  eV     1   --> A'             
     e( 58 - 58) =     24.38982  eV     1   --> A''            
     e( 59 - 59) =     24.39500  eV     1   --> A'             
     e( 60 - 60) =     24.51990  eV     1   --> A'             
     e( 61 - 61) =     24.76773  eV     1   --> A'             
     e( 62 - 62) =     24.77213  eV     1   --> A''            
     e( 63 - 63) =     25.91105  eV     1   --> A'             
     e( 64 - 64) =     25.95657  eV     1   --> A''            
     e( 65 - 65) =     26.37548  eV     1   --> A'             
     e( 66 - 66) =     27.28842  eV     1   --> A'             
     e( 67 - 67) =     27.31845  eV     1   --> A''            
     e( 68 - 68) =     27.65728  eV     1   --> A'             
     e( 69 - 69) =     28.34563  eV     1   --> A'             
     e( 70 - 70) =     28.36340  eV     1   --> A''            
     e( 71 - 71) =     29.17740  eV     1   --> A'             
     e( 72 - 72) =     29.56916  eV     1   --> A'             

 **************************************************************************

 **************************************************************************

                    xk=(   0.00000,   0.00000,   0.00000  )

     Band symmetry, C_s (m)     point group:

     e(  1 -  1) =    -13.78322  eV     1   --> A'             
     e(  2 -  2) =    -13.78185  eV     1   --> A'             
     e(  3 -  3) =     -8.38938  eV     1   --> A'             
     e(  4 -  4) =     -8.37738  eV     1   --> A'             
     e(  5 -  5) =     -0.94988  eV     1   --> A'             
     e(  6 -  6) =     -0.41638  eV     1   --> A'             
     e(  7 -  7) =      0.69086  eV     1   --> A'             
     e(  8 -  8) =      1.20526  eV     1   --> A'             
     e(  9 -  9) =      1.20588  eV     1   --> A''            
     e( 10 - 10) =      1.20602  eV     1   --> A'             
     e( 11 - 11) =      1.20671  eV     1   --> A''            
     e( 12 - 12) =      2.05629  eV     1   --> A'             
     e( 13 - 13) =      3.34972  eV     1   --> A'             
     e( 14 - 14) =      4.97164  eV     1   --> A'             
     e( 15 - 15) =      5.38810  eV     1   --> A'             
     e( 16 - 16) =      5.38985  eV     1   --> A''            
     e( 17 - 17) =      5.39056  eV     1   --> A'             
     e( 18 - 18) =      5.39248  eV     1   --> A''            
     e( 19 - 19) =      6.76891  eV     1   --> A'             
     e( 20 - 20) =      8.30850  eV     1   --> A'             
     e( 21 - 21) =     11.10595  eV     1   --> A'             
     e( 22 - 22) =     11.58134  eV     1   --> A'             
     e( 23 - 23) =     11.73322  eV     1   --> A'             
     e( 24 - 24) =     12.87151  eV     1   --> A'             
     e( 25 - 25) =     12.87560  eV     1   --> A''            
     e( 26 - 26) =     12.94557  eV     1   --> A'             
     e( 27 - 27) =     12.94971  eV     1   --> A''            
     e( 28 - 28) =     13.35947  eV     1   --> A'             
     e( 29 - 29) =     14.44109  eV     1   --> A'             
     e( 30 - 30) =     14.44486  eV     1   --> A''            
     e( 31 - 31) =     14.56867  eV     1   --> A'             
     e( 32 - 32) =     14.57257  eV     1   --> A''            
     e( 33 - 33) =     15.10739  eV     1   --> A'             
     e( 34 - 34) =     16.08609  eV     1   --> A'             
     e( 35 - 35) =     16.08968  eV     1   --> A''            
     e( 36 - 36) =     16.48541  eV     1   --> A'             
     e( 37 - 37) =     16.48902  eV     1   --> A''            
     e( 38 - 38) =     16.71216  eV     1   --> A'             
     e( 39 - 39) =     17.83048  eV     1   --> A'             
     e( 40 - 40) =     18.04570  eV     1   --> A'             
     e( 41 - 41) =     18.11260  eV     1   --> A'             
     e( 42 - 42) =     18.11565  eV     1   --> A''            
     e( 43 - 43) =     18.95581  eV     1   --> A'             
     e( 44 - 44) =     18.95904  eV     1   --> A''            
     e( 45 - 45) =     19.44489  eV     1   --> A'             
     e( 46 - 46) =     20.06101  eV     1   --> A'             
     e( 47 - 47) =     20.38928  eV     1   --> A'             
     e( 48 - 48) =     20.69253  eV     1   --> A'             
     e( 49 - 49) =     20.69678  eV     1   --> A''            
     e( 50 - 50) =     21.34312  eV     1   --> A'             
     e( 51 - 51) =     21.34748  eV     1   --> A''            
     e( 52 - 52) =     21.47722  eV     1   --> A'             
     e( 53 - 53) =     22.05671  eV     1   --> A'             
     e( 54 - 54) =     22.80764  eV     1   --> A'             
     e( 55 - 55) =     22.81106  eV     1   --> A''            
     e( 56 - 56) =     23.00941  eV     1   --> A'             
     e( 57 - 57) =     24.17122  eV     1   --> A'             
     e( 58 - 58) =     24.38023  eV     1   --> A'             
     e( 59 - 59) =     24.38425  eV     1   --> A''            
     e( 60 - 60) =     24.48032  eV     1   --> A'             
     e( 61 - 61) =     24.76454  eV     1   --> A'             
     e( 62 - 62) =     24.76856  eV     1   --> A''            
     e( 63 - 63) =     25.95960  eV     1   --> A'             
     e( 64 - 64) =     25.96349  eV     1   --> A''            
     e( 65 - 65) =     26.31876  eV     1   --> A'             
     e( 66 - 66) =     27.28628  eV     1   --> A'             
     e( 67 - 67) =     27.29080  eV     1   --> A''            
     e( 68 - 68) =     27.62885  eV     1   --> A'             
     e( 69 - 69) =     28.35194  eV     1   --> A'             
     e( 70 - 70) =     28.35760  eV     1   --> A''            
     e( 71 - 71) =     29.15753  eV     1   --> A'             
     e( 72 - 72) =     29.59378  eV     1   --> A'             

 **************************************************************************
 
     BANDS        :      7.34s CPU     12.19s WALL

 
   This run was terminated on:  14: 9:54   7Mar2023            

=------------------------------------------------------------------------------=
   JOB DONE.
=------------------------------------------------------------------------------=
