
     Program PWSCF v.7.1 starts on  7Mar2023 at 14: 5:40 

     This program is part of the open-source Quantum ESPRESSO suite
     for quantum simulation of materials; please cite
         "P. Giannozzi et al., J. Phys.:Condens. Matter 21 395502 (2009);
         "P. Giannozzi et al., J. Phys.:Condens. Matter 29 465901 (2017);
         "P. Giannozzi et al., J. Chem. Phys. 152 154105 (2020);
          URL http://www.quantum-espresso.org", 
     in publications or presentations arising from this work. More details at
     http://www.quantum-espresso.org/quote

     Parallel version (MPI), running on    22 processors

     MPI processes distributed on     1 nodes
     96341 MiB available memory on the printing compute node when the environment starts
 
     Waiting for input...
     Reading input from standard input

     Current dimensions of program PWSCF are:
     Max number of different atomic species (ntypx) = 10
     Max number of k-points (npk) =  40000
     Max angular momentum in pseudopotentials (lmaxx) =  4
     Message from routine volume:
     axis vectors are left-handed

     Atomic positions and unit cell read from directory:
     ./work/Al2SO.save/
     Atomic positions from file used, from input discarded
 
     Message from routine volume:
     axis vectors are left-handed
     file Al.pbe-n-kjpaw_psl.1.0.0.UPF: wavefunction(s)  3S 3P renormalized
     file O.pbe-n-kjpaw_psl.1.0.0.UPF: wavefunction(s)  2S 2P renormalized
     file S.pbe-n-kjpaw_psl.1.0.0.UPF: wavefunction(s)  3S 3P renormalized
     Message from routine setup:
     using ibrav=0 with symmetry is DISCOURAGED, use correct ibrav instead
 
     R & G space division:  proc/nbgrp/npool/nimage =      22
     Subspace diagonalization in iterative solution of the eigenvalue problem:
     a serial algorithm will be used

 
     Parallelization info
     --------------------
     sticks:   dense  smooth     PW     G-vecs:    dense   smooth      PW
     Min          28      28      8                 2538     2538     398
     Max          29      29      9                 2547     2547     413
     Sum         637     637    187                55957    55957    8959
 
     Using Slab Decomposition
 


     bravais-lattice index     =            0
     lattice parameter (alat)  =       6.1678  a.u.
     unit-cell volume          =     891.1655 (a.u.)^3
     number of atoms/cell      =            8
     number of atomic types    =            3
     number of electrons       =        36.00
     number of Kohn-Sham states=           72
     kinetic-energy cutoff     =      60.0000  Ry
     charge density cutoff     =     240.0000  Ry
     Exchange-correlation= SLA  PW   PBX  PBC
                           (   1   4   3   4   0   0   0)

     celldm(1)=   6.167802  celldm(2)=   0.000000  celldm(3)=   0.000000
     celldm(4)=   0.000000  celldm(5)=   0.000000  celldm(6)=   0.000000

     crystal axes: (cart. coord. in units of alat)
               a(1) = (   0.866080   0.499906   0.000005 )  
               a(2) = (   0.866080  -0.499906   0.000005 )  
               a(3) = (   0.000112   0.000000   4.386223 )  

     reciprocal axes: (cart. coord. in units 2 pi/alat)
               b(1) = (  0.577314  1.000187 -0.000015 )  
               b(2) = (  0.577314 -1.000187 -0.000015 )  
               b(3) = ( -0.000001  0.000000  0.227987 )  


     PseudoPot. # 1 for Al read from file:
     /home/mainadmin/research/danu/pseudo/Al.pbe-n-kjpaw_psl.1.0.0.UPF
     MD5 check sum: 502b6b27b9c6270cab5dd1084b96fa6d
     Pseudo is Projector augmented-wave + core cor, Zval =  3.0
     Generated using &quot;atomic&quot; code by A. Dal Corso  v.6.3
     Shape of augmentation charge: PSQ
     Using radial grid of 1135 points,  6 beta functions with: 
                l(1) =   0
                l(2) =   0
                l(3) =   1
                l(4) =   1
                l(5) =   2
                l(6) =   2
     Q(r) pseudized with 0 coefficients 


     PseudoPot. # 2 for O  read from file:
     /home/mainadmin/research/danu/pseudo/O.pbe-n-kjpaw_psl.1.0.0.UPF
     MD5 check sum: e99d9cef9b487d1ca56f5b95ecd0fd7a
     Pseudo is Projector augmented-wave + core cor, Zval =  6.0
     Generated using &quot;atomic&quot; code by A. Dal Corso  v.6.3
     Shape of augmentation charge: PSQ
     Using radial grid of 1095 points,  4 beta functions with: 
                l(1) =   0
                l(2) =   0
                l(3) =   1
                l(4) =   1
     Q(r) pseudized with 0 coefficients 


     PseudoPot. # 3 for S  read from file:
     /home/mainadmin/research/danu/pseudo/S.pbe-n-kjpaw_psl.1.0.0.UPF
     MD5 check sum: fb45dfebcf3e72a4e1bd4a866ec2e262
     Pseudo is Projector augmented-wave + core cor, Zval =  6.0
     Generated using &quot;atomic&quot; code by A. Dal Corso  v.6.3
     Shape of augmentation charge: PSQ
     Using radial grid of 1151 points,  6 beta functions with: 
                l(1) =   0
                l(2) =   0
                l(3) =   1
                l(4) =   1
                l(5) =   2
                l(6) =   2
     Q(r) pseudized with 0 coefficients 


     atomic species   valence    mass     pseudopotential
        Al             3.00    26.98100     Al( 1.00)
        O              6.00    15.99900     O ( 1.00)
        S              6.00    32.06500     S ( 1.00)

      2 Sym. Ops. (no inversion) found



   Cartesian axes

     site n.     atom                  positions (alat units)
         1           O   tau(   1) = (   1.1547727   0.0000000   0.0000062  )
         2           Al  tau(   2) = (   0.5773878   0.0000000   0.1313053  )
         3           Al  tau(   3) = (   0.5774100   0.0000000   0.9354158  )
         4           S   tau(   4) = (   1.1548068   0.0000000   1.3160584  )
         5           O   tau(   5) = (   0.5774427   0.0000000   2.1928653  )
         6           Al  tau(   6) = (   1.1548314   0.0000000   2.3242907  )
         7           Al  tau(   7) = (   1.1548518   0.0000000   3.1285472  )
         8           S   tau(   8) = (   0.5774763   0.0000000   3.5094383  )

     number of k points=    91
                       cart. coord. in units 2pi/alat
        k(    1) = (   0.0000000   0.0000000   0.0000000), wk =   0.0219780
        k(    2) = (   0.0192438  -0.0111161  -0.0000005), wk =   0.0219780
        k(    3) = (   0.0384876  -0.0222322  -0.0000010), wk =   0.0219780
        k(    4) = (   0.0577314  -0.0333483  -0.0000015), wk =   0.0219780
        k(    5) = (   0.0769752  -0.0444643  -0.0000020), wk =   0.0219780
        k(    6) = (   0.0962190  -0.0555804  -0.0000024), wk =   0.0219780
        k(    7) = (   0.1154628  -0.0666965  -0.0000029), wk =   0.0219780
        k(    8) = (   0.1347066  -0.0778126  -0.0000034), wk =   0.0219780
        k(    9) = (   0.1539505  -0.0889287  -0.0000039), wk =   0.0219780
        k(   10) = (   0.1731943  -0.1000448  -0.0000044), wk =   0.0219780
        k(   11) = (   0.1924381  -0.1111608  -0.0000049), wk =   0.0219780
        k(   12) = (   0.2116819  -0.1222769  -0.0000054), wk =   0.0219780
        k(   13) = (   0.2309257  -0.1333930  -0.0000059), wk =   0.0219780
        k(   14) = (   0.2501695  -0.1445091  -0.0000064), wk =   0.0219780
        k(   15) = (   0.2694133  -0.1556252  -0.0000069), wk =   0.0219780
        k(   16) = (   0.2886571  -0.1667413  -0.0000073), wk =   0.0219780
        k(   17) = (   0.3079009  -0.1778573  -0.0000078), wk =   0.0219780
        k(   18) = (   0.3271447  -0.1889734  -0.0000083), wk =   0.0219780
        k(   19) = (   0.3463885  -0.2000895  -0.0000088), wk =   0.0219780
        k(   20) = (   0.3656323  -0.2112056  -0.0000093), wk =   0.0219780
        k(   21) = (   0.3848761  -0.2223217  -0.0000098), wk =   0.0219780
        k(   22) = (   0.4041199  -0.2334378  -0.0000103), wk =   0.0219780
        k(   23) = (   0.4233637  -0.2445538  -0.0000108), wk =   0.0219780
        k(   24) = (   0.4426076  -0.2556699  -0.0000113), wk =   0.0219780
        k(   25) = (   0.4618514  -0.2667860  -0.0000118), wk =   0.0219780
        k(   26) = (   0.4810952  -0.2779021  -0.0000122), wk =   0.0219780
        k(   27) = (   0.5003390  -0.2890182  -0.0000127), wk =   0.0219780
        k(   28) = (   0.5195828  -0.3001343  -0.0000132), wk =   0.0219780
        k(   29) = (   0.5388266  -0.3112503  -0.0000137), wk =   0.0219780
        k(   30) = (   0.5580704  -0.3223664  -0.0000142), wk =   0.0219780
        k(   31) = (   0.5773142  -0.3334825  -0.0000147), wk =   0.0219780
        k(   32) = (   0.5773142  -0.3223664  -0.0000147), wk =   0.0219780
        k(   33) = (   0.5773142  -0.3112503  -0.0000147), wk =   0.0219780
        k(   34) = (   0.5773142  -0.3001343  -0.0000147), wk =   0.0219780
        k(   35) = (   0.5773142  -0.2890182  -0.0000147), wk =   0.0219780
        k(   36) = (   0.5773142  -0.2779021  -0.0000147), wk =   0.0219780
        k(   37) = (   0.5773142  -0.2667860  -0.0000147), wk =   0.0219780
        k(   38) = (   0.5773142  -0.2556699  -0.0000147), wk =   0.0219780
        k(   39) = (   0.5773142  -0.2445538  -0.0000147), wk =   0.0219780
        k(   40) = (   0.5773142  -0.2334378  -0.0000147), wk =   0.0219780
        k(   41) = (   0.5773142  -0.2223217  -0.0000147), wk =   0.0219780
        k(   42) = (   0.5773142  -0.2112056  -0.0000147), wk =   0.0219780
        k(   43) = (   0.5773142  -0.2000895  -0.0000147), wk =   0.0219780
        k(   44) = (   0.5773142  -0.1889734  -0.0000147), wk =   0.0219780
        k(   45) = (   0.5773142  -0.1778573  -0.0000147), wk =   0.0219780
        k(   46) = (   0.5773142  -0.1667413  -0.0000147), wk =   0.0219780
        k(   47) = (   0.5773142  -0.1556252  -0.0000147), wk =   0.0219780
        k(   48) = (   0.5773142  -0.1445091  -0.0000147), wk =   0.0219780
        k(   49) = (   0.5773142  -0.1333930  -0.0000147), wk =   0.0219780
        k(   50) = (   0.5773142  -0.1222769  -0.0000147), wk =   0.0219780
        k(   51) = (   0.5773142  -0.1111608  -0.0000147), wk =   0.0219780
        k(   52) = (   0.5773142  -0.1000448  -0.0000147), wk =   0.0219780
        k(   53) = (   0.5773142  -0.0889287  -0.0000147), wk =   0.0219780
        k(   54) = (   0.5773142  -0.0778126  -0.0000147), wk =   0.0219780
        k(   55) = (   0.5773142  -0.0666965  -0.0000147), wk =   0.0219780
        k(   56) = (   0.5773142  -0.0555804  -0.0000147), wk =   0.0219780
        k(   57) = (   0.5773142  -0.0444643  -0.0000147), wk =   0.0219780
        k(   58) = (   0.5773142  -0.0333483  -0.0000147), wk =   0.0219780
        k(   59) = (   0.5773142  -0.0222322  -0.0000147), wk =   0.0219780
        k(   60) = (   0.5773142  -0.0111161  -0.0000147), wk =   0.0219780
        k(   61) = (   0.5773142   0.0000000  -0.0000147), wk =   0.0219780
        k(   62) = (   0.5580704   0.0000000  -0.0000142), wk =   0.0219780
        k(   63) = (   0.5388266   0.0000000  -0.0000137), wk =   0.0219780
        k(   64) = (   0.5195828   0.0000000  -0.0000132), wk =   0.0219780
        k(   65) = (   0.5003390   0.0000000  -0.0000127), wk =   0.0219780
        k(   66) = (   0.4810952   0.0000000  -0.0000122), wk =   0.0219780
        k(   67) = (   0.4618514   0.0000000  -0.0000118), wk =   0.0219780
        k(   68) = (   0.4426076   0.0000000  -0.0000113), wk =   0.0219780
        k(   69) = (   0.4233637   0.0000000  -0.0000108), wk =   0.0219780
        k(   70) = (   0.4041199   0.0000000  -0.0000103), wk =   0.0219780
        k(   71) = (   0.3848761   0.0000000  -0.0000098), wk =   0.0219780
        k(   72) = (   0.3656323   0.0000000  -0.0000093), wk =   0.0219780
        k(   73) = (   0.3463885   0.0000000  -0.0000088), wk =   0.0219780
        k(   74) = (   0.3271447   0.0000000  -0.0000083), wk =   0.0219780
        k(   75) = (   0.3079009   0.0000000  -0.0000078), wk =   0.0219780
        k(   76) = (   0.2886571   0.0000000  -0.0000073), wk =   0.0219780
        k(   77) = (   0.2694133   0.0000000  -0.0000069), wk =   0.0219780
        k(   78) = (   0.2501695   0.0000000  -0.0000064), wk =   0.0219780
        k(   79) = (   0.2309257   0.0000000  -0.0000059), wk =   0.0219780
        k(   80) = (   0.2116819   0.0000000  -0.0000054), wk =   0.0219780
        k(   81) = (   0.1924381   0.0000000  -0.0000049), wk =   0.0219780
        k(   82) = (   0.1731943   0.0000000  -0.0000044), wk =   0.0219780
        k(   83) = (   0.1539505   0.0000000  -0.0000039), wk =   0.0219780
        k(   84) = (   0.1347066   0.0000000  -0.0000034), wk =   0.0219780
        k(   85) = (   0.1154628   0.0000000  -0.0000029), wk =   0.0219780
        k(   86) = (   0.0962190   0.0000000  -0.0000024), wk =   0.0219780
        k(   87) = (   0.0769752   0.0000000  -0.0000020), wk =   0.0219780
        k(   88) = (   0.0577314   0.0000000  -0.0000015), wk =   0.0219780
        k(   89) = (   0.0384876   0.0000000  -0.0000010), wk =   0.0219780
        k(   90) = (   0.0192438   0.0000000  -0.0000005), wk =   0.0219780
        k(   91) = (   0.0000000   0.0000000   0.0000000), wk =   0.0219780

     Dense  grid:    55957 G-vectors     FFT dimensions: (  32,  32, 135)

     Estimated max dynamical RAM per process >      13.04 MB

     Estimated total dynamical RAM >     286.95 MB

     Check: negative core charge=   -0.000003

     The potential is recalculated from file :
     ./work/Al2SO.save/charge-density

     Starting wfcs are   32 randomized atomic wfcs +   40 random wfcs
     Checking if some PAW data can be deallocated... 

     Band Structure Calculation
     Davidson diagonalization with overlap
     c_bands:  1 eigenvalues not converged
     c_bands:  1 eigenvalues not converged

     ethr =  2.78E-11,  avg # of iterations = 62.2

     total cpu time spent up to now is      236.2 secs

     End of band structure calculation

          k = 0.0000 0.0000 0.0000 (  6965 PWs)   bands (ev):

   -13.7832 -13.7819  -8.3894  -8.3774  -0.9499  -0.4164   0.6909   1.2053
     1.2059   1.2060   1.2067   2.0563   3.3497   4.9716   5.3881   5.3898
     5.3906   5.3925   6.7689   8.3085  11.1059  11.5813  11.7332  12.8715
    12.8756  12.9456  12.9497  13.3595  14.4411  14.4449  14.5687  14.5726
    15.1074  16.0861  16.0897  16.4854  16.4890  16.7122  17.8305  18.0457
    18.1126  18.1156  18.9558  18.9590  19.4449  20.0610  20.3893  20.6925
    20.6968  21.3431  21.3475  21.4772  22.0567  22.8076  22.8111  23.0094
    24.1712  24.3802  24.3842  24.4803  24.7645  24.7686  25.9596  25.9635
    26.3188  27.2863  27.2908  27.6289  28.3519  28.3576  29.1575  29.5938

          k = 0.0192-0.0111-0.0000 (  6979 PWs)   bands (ev):

   -13.7814 -13.7801  -8.3846  -8.3727  -0.9448  -0.4144   0.6948   1.1844
     1.1947   1.2037   1.2045   2.0631   3.3616   4.9758   5.3559   5.3575
     5.3821   5.3847   6.7834   8.3197  11.1043  11.6096  11.7606  12.8475
    12.8852  12.9055  12.9611  13.3742  14.3875  14.4489  14.5337  14.5789
    15.1386  16.0278  16.0694  16.3166  16.4830  16.8581  17.8763  18.0705
    18.0895  18.1255  18.9612  18.9770  19.4755  20.1053  20.4339  20.6658
    20.6953  21.3045  21.3478  21.5132  22.0740  22.7525  22.8216  23.0677
    24.1384  24.3894  24.4011  24.5326  24.7696  24.7733  25.8979  25.9532
    26.3923  27.2904  27.3262  27.6666  28.3448  28.3642  29.1838  29.5623

          k = 0.0385-0.0222-0.0000 (  7003 PWs)   bands (ev):

   -13.7761 -13.7748  -8.3704  -8.3585  -0.9296  -0.4087   0.7066   1.1232
     1.1627   1.1975   1.1983   2.0817   3.3958   4.9875   5.2574   5.2637
     5.3600   5.3626   6.8262   8.3530  11.0983  11.6900  11.8393  12.7757
    12.7922  12.9220  12.9980  13.4054  14.2497  14.4285  14.4678  14.6004
    15.2081  15.8730  15.9683  16.1048  16.4648  17.0408  17.9473  18.0915
    18.1023  18.1647  18.9982  19.0299  19.5640  20.2243  20.5403  20.5969
    20.7142  21.1960  21.3505  21.6087  22.1265  22.6489  22.8530  23.1816
    24.0653  24.4004  24.4376  24.6480  24.7918  24.8301  25.7684  25.9250
    26.5555  27.3023  27.4288  27.7694  28.3287  28.3860  29.2476  29.4849

          k = 0.0577-0.0333-0.0000 (  7019 PWs)   bands (ev):

   -13.7673 -13.7659  -8.3468  -8.3350  -0.9045  -0.4002   0.7262   1.0298
     1.1128   1.1871   1.1879   2.1078   3.4490   5.0038   5.1033   5.1173
     5.3229   5.3255   6.8953   8.4071  11.0856  11.8100  11.9584  12.6358
    12.6644  12.9770  13.0584  13.4371  14.0665  14.2803  14.4901  14.6364
    15.2792  15.6689  15.7251  15.9958  16.4320  17.1573  17.9578  18.1102
    18.1890  18.2343  19.1128  19.1163  19.7011  20.3531  20.5519  20.5857
    20.8605  21.0428  21.3566  21.7288  22.2149  22.5447  22.9013  23.3091
    23.9807  24.4106  24.4780  24.7339  24.8303  25.0340  25.6212  25.8777
    26.7635  27.3282  27.5834  27.8933  28.3403  28.4198  29.2417  29.4496

          k = 0.0770-0.0445-0.0000 (  7023 PWs)   bands (ev):

   -13.7551 -13.7538  -8.3138  -8.3023  -0.8697  -0.3906   0.7531   0.9126
     1.0499   1.1723   1.1732   2.1378   3.5158   4.8951   4.9292   5.0324
     5.2705   5.2733   6.9888   8.4803  11.0644  11.9521  12.0994  12.4492
    12.5247  13.0415  13.1364  13.4659  13.8635  14.1002  14.5228  14.6880
    15.3009  15.4721  15.4898  15.8802  16.3870  17.1650  18.0492  18.0824
    18.1705  18.4026  19.2244  19.3320  19.8711  20.3259  20.5621  20.6930
    20.8719  21.1240  21.3765  21.8373  22.3202  22.4640  22.9811  23.4270
    23.9018  24.4408  24.5360  24.8216  24.8665  25.3290  25.4931  25.8122
    26.9986  27.3765  27.7659  27.9659  28.4457  28.4638  29.1064  29.3352

          k = 0.0962-0.0556-0.0000 (  7029 PWs)   bands (ev):

   -13.7396 -13.7383  -8.2717  -8.2605  -0.8256  -0.3825   0.7791   0.7864
     0.9807   1.1532   1.1541   2.1691   3.5889   4.6594   4.7134   5.0554
     5.2027   5.2055   7.1046   8.5703  11.0336  12.0953  12.2248  12.2454
    12.3860  13.0886  13.2126  13.4903  13.6675  13.9068  14.5684  14.7573
    15.1672  15.2633  15.4702  15.7303  16.3359  17.0975  17.9897  18.1470
    18.2177  18.5512  19.3551  19.6208  20.0507  20.2544  20.5127  20.7168
    20.8928  21.4306  21.4359  21.9330  22.3799  22.4297  23.1312  23.5212
    23.8436  24.5157  24.6310  24.8411  24.9351  25.4507  25.6584  25.7340
    27.2232  27.4745  27.8546  28.0907  28.5167  28.6260  28.9503  29.1985

          k = 0.1155-0.0667-0.0000 (  7027 PWs)   bands (ev):

   -13.7211 -13.7198  -8.2207  -8.2098  -0.7729  -0.3794   0.6357   0.8205
     0.9177   1.1293   1.1305   2.2002   3.6564   4.3974   4.4887   5.0791
     5.1193   5.1219   7.2406   8.6746  10.9918  12.0114  12.1500  12.2456
    12.4271  13.0794  13.2458  13.4082  13.5987  13.7150  14.6432  14.8364
    15.0265  15.1263  15.5075  15.5494  16.2884  17.0125  17.8477  18.1198
    18.3949  18.6737  19.4877  19.9474  20.2079  20.2193  20.4282  20.6271
    21.0507  21.5208  21.7681  22.0627  22.3560  22.4641  23.3567  23.6028
    23.8203  24.6235  24.7166  24.7800  25.0815  25.5354  25.6439  26.0003
    27.3629  27.6787  27.8223  28.3447  28.5779  28.7729  28.8166  29.0710

          k = 0.1347-0.0778-0.0000 (  7013 PWs)   bands (ev):

   -13.6998 -13.6985  -8.1609  -8.1504  -0.7128  -0.3856   0.4879   0.8182
     0.9055   1.1007   1.1024   2.2297   3.6897   4.1189   4.2902   5.0187
     5.0222   5.1028   7.3945   8.7903  10.9378  11.7806  11.9755  12.3667
    12.5470  12.9959  13.1917  13.2332  13.5386  13.6316  14.7619  14.8209
    15.0712  15.0726  15.3596  15.5498  16.2563  16.9375  17.6741  18.0823
    18.5330  18.7720  19.6041  20.2263  20.2425  20.2539  20.4377  20.6216
    21.1713  21.5774  22.1029  22.2562  22.3145  22.5783  23.5958  23.7068
    23.8528  24.5524  24.7167  24.9796  25.2697  25.5697  25.7090  26.3136
    27.4439  27.7961  27.9300  28.6218  28.6338  28.7513  28.7669  29.0504

          k = 0.1540-0.0889-0.0000 (  7009 PWs)   bands (ev):

   -13.6758 -13.6746  -8.0928  -8.0827  -0.6475  -0.4060   0.3410   0.7794
     0.9507   1.0669   1.0703   2.2553   3.6273   3.8313   4.1858   4.9031
     4.9069   5.1225   7.5640   8.9141  10.8692  11.5407  11.7951  12.4661
    12.6490  12.8610  13.0529  13.0574  13.3869  13.6441  14.7454  14.8307
    15.0919  15.2657  15.2661  15.6101  16.2519  16.8833  17.4777  18.0340
    18.6170  18.8413  19.6958  20.1452  20.3220  20.3232  20.6112  20.7924
    21.2978  21.5617  22.1697  22.4376  22.6354  22.7541  23.7534  23.8713
    23.9864  24.3936  24.7488  25.2410  25.4522  25.5800  25.9346  26.5552
    27.5108  27.8302  28.1292  28.6111  28.6220  28.8767  28.9277  29.1007

          k = 0.1732-0.1000-0.0000 (  7018 PWs)   bands (ev):

   -13.6496 -13.6483  -8.0167  -8.0071  -0.5812  -0.4439   0.2020   0.7528
     1.0001   1.0278   1.0440   2.2730   3.4533   3.5408   4.1996   4.7718
     4.7762   5.1386   7.7466   9.0422  10.7833  11.2956  11.6203  12.5075
    12.6849  12.7382  12.8784  12.8986  13.2738  13.6320  14.6655  14.7058
    15.0859  15.4621  15.4709  15.7461  16.2885  16.8600  17.2659  17.9774
    18.6527  18.8810  19.7640  20.0517  20.3430  20.4313  20.6525  21.1616
    21.3902  21.5639  22.0785  22.7685  22.9669  23.0078  23.8481  24.1155
    24.1286  24.3315  24.7060  25.4825  25.5550  25.8230  26.1925  26.6787
    27.5744  27.9391  28.2352  28.5043  28.6626  29.0475  29.0742  29.2907

          k = 0.1924-0.1112-0.0000 (  7035 PWs)   bands (ev):

   -13.6213 -13.6201  -7.9330  -7.9240  -0.5237  -0.5002   0.0827   0.7470
     0.9797   0.9831   1.0905   2.2748   3.2390   3.2530   4.2705   4.6254
     4.6317   5.1504   7.9402   9.1697  10.6770  11.0472  11.4579  12.4020
    12.5490  12.6878  12.7434  12.8392  13.2339  13.6133  14.4922  14.5700
    15.0969  15.5718  15.7671  15.9835  16.3970  16.8899  17.0520  17.9174
    18.6452  18.9059  19.8153  19.9870  20.3442  20.5315  20.6857  21.3161
    21.5393  21.7552  22.0070  23.0299  23.2685  23.3217  23.9678  24.1471
    24.4130  24.4840  24.6227  25.5086  25.9020  26.1270  26.4669  26.6864
    27.6380  28.0063  28.3003  28.5653  28.7365  29.0255  29.2842  29.5723

          k = 0.2117-0.1223-0.0000 (  7032 PWs)   bands (ev):

   -13.5915 -13.5903  -7.8424  -7.8339  -0.5727  -0.4956   0.0051   0.7605
     0.9326   0.9342   1.1645   2.2448   2.9732   3.0402   4.3539   4.4650
     4.4818   5.1577   8.1426   9.2907  10.5486  10.7973  11.3124  12.2098
    12.3392  12.5448  12.7679  12.7894  13.2830  13.6061  14.2642  14.4567
    15.1101  15.6375  16.0226  16.1736  16.5891  16.9029  17.0176  17.8640
    18.5987  18.9341  19.8575  19.9544  20.3372  20.5810  20.7271  21.2251
    21.8970  21.9512  22.0252  23.2258  23.4427  23.6490  24.1192  24.3114
    24.4642  24.7046  24.7971  25.5474  26.2551  26.4506  26.6225  26.7410
    27.7011  27.9571  28.3839  28.8135  28.8171  28.9935  29.4629  29.8162

          k = 0.2309-0.1334-0.0000 (  7015 PWs)   bands (ev):

   -13.5603 -13.5592  -7.7453  -7.7375  -0.6568  -0.5222  -0.0046   0.7833
     0.8766   0.8875   1.2453   2.1600   2.7075   2.8952   4.2839   4.2918
     4.4802   5.1602   8.3518   9.3972  10.3999  10.5476  11.1848  11.9920
    12.1346  12.4224  12.7245  12.7804  13.3855  13.6248  14.0425  14.3324
    15.1141  15.6738  16.1723  16.2901  16.5366  17.1153  17.2770  17.8434
    18.5230  18.9750  19.8917  19.9533  20.3292  20.5582  20.7827  21.1778
    21.9334  22.2178  22.3102  23.4192  23.4226  23.9755  24.2323  24.4354
    24.6337  25.0028  25.0861  25.6264  26.4871  26.5848  26.8210  26.9987
    27.7596  27.8892  28.4970  28.8425  28.9055  29.2374  29.6311  29.9751

          k = 0.2502-0.1445-0.0000 (  7013 PWs)   bands (ev):

   -13.5283 -13.5272  -7.6427  -7.6355  -0.7475  -0.5983   0.0490   0.7797
     0.8147   0.8686   1.3303   2.0117   2.4633   2.8199   4.1048   4.1074
     4.5789   5.1577   8.5659   9.4781  10.2382  10.3002  11.0722  11.7680
    11.9589  12.3254  12.6634  12.7578  13.5098  13.6761  13.8391  14.2074
    15.1053  15.6575  16.2285  16.3341  16.4407  17.4041  17.6275  17.9456
    18.4314  19.0313  19.9100  19.9806  20.3290  20.4989  20.8525  21.1669
    21.9432  22.4905  22.6045  23.3657  23.6325  24.0222  24.3533  24.6986
    24.9017  25.2274  25.4331  25.8279  26.3429  26.8611  27.1929  27.2293
    27.8090  27.8429  28.5905  28.7474  29.0508  29.5726  29.8255  30.0402

          k = 0.2694-0.1556-0.0000 (  7015 PWs)   bands (ev):

   -13.4959 -13.4948  -7.5352  -7.5287  -0.8401  -0.6967   0.1381   0.7261
     0.7473   0.8905   1.4170   1.8216   2.2519   2.7974   3.9119   3.9135
     4.6812   5.1505   8.7825   9.5171  10.0573  10.0769  10.9709  11.5484
    11.8268  12.2488  12.6121  12.7009  13.5850  13.7202  13.7540  14.0953
    15.0849  15.5596  16.2302  16.2538  16.5191  17.5125  17.9906  18.2748
    18.3365  19.1006  19.9064  20.0321  20.3469  20.4698  20.9346  21.1669
    21.9829  22.7140  22.8909  23.3219  23.8065  23.9879  24.4820  25.0879
    25.1233  25.2340  25.9405  26.1097  26.2071  27.0534  27.4319  27.5577
    27.8391  27.8409  28.6236  28.6477  29.2917  29.7017  29.9532  30.1669

          k = 0.2887-0.1667-0.0000 (  7013 PWs)   bands (ev):

   -13.4634 -13.4623  -7.4239  -7.4181  -0.9306  -0.7995   0.2426   0.6549
     0.6749   0.9061   1.5003   1.6181   2.0907   2.8038   3.7103   3.7121
     4.7818   5.1386   8.9979   9.4918   9.8232   9.9356  10.8799  11.3393
    11.7469  12.1874  12.5683  12.6166  13.4592  13.8287  13.8400  14.0268
    15.0568  15.3875  16.1977  16.2028  16.6231  17.5401  18.2064  18.3317
    18.6987  19.1698  19.9106  20.1031  20.3950  20.5142  21.0286  21.1711
    22.0453  22.8954  23.1604  23.3037  23.7794  24.1496  24.6148  25.1913
    25.3284  25.4109  26.0816  26.4426  26.4702  27.1353  27.6211  27.6794
    27.8285  28.0809  28.5815  28.6210  29.5688  29.5769  29.7847  30.3519

          k = 0.3079-0.1779-0.0000 (  7016 PWs)   bands (ev):

   -13.4312 -13.4302  -7.3100  -7.3049  -1.0158  -0.8981   0.3473   0.5750
     0.6004   0.8894   1.4222   1.5726   2.0030   2.8243   3.5025   3.5048
     4.8783   5.1228   9.1967   9.3890   9.6126   9.8291  10.8012  11.1447
    11.7194  12.1362  12.5119  12.5255  13.3345  13.8307  14.0023  14.0694
    15.0258  15.1793  16.1391  16.1684  16.7316  17.5650  18.1229  18.5055
    19.1056  19.2187  19.9759  20.1880  20.4883  20.6529  21.1404  21.1849
    22.1232  23.0432  23.3163  23.4084  23.7159  24.3363  24.7483  25.1444
    25.5107  25.5180  26.1341  26.7231  26.9808  27.0970  27.6431  27.7556
    27.8221  28.4058  28.5775  28.6525  29.3530  29.6814  29.8905  30.4016

          k = 0.3271-0.1890-0.0000 (  7001 PWs)   bands (ev):

   -13.3998 -13.3988  -7.1947  -7.1902  -1.0933  -0.9883   0.4209   0.4882
     0.5412   0.8286   1.2529   1.6298   2.0011   2.8514   3.2906   3.2936
     4.9687   5.1039   9.2284   9.2536   9.5508   9.7452  10.7371  10.9672
    11.7372  12.0907  12.3928  12.4746  13.2501  13.7991  14.1747  14.1761
    14.9717  14.9971  16.0603  16.1315  16.8377  17.6052  18.0197  18.5430
    19.2650  19.4361  20.0851  20.2803  20.6370  20.8995  21.2177  21.2897
    22.2164  23.1635  23.3603  23.6329  23.6803  24.4521  24.8781  25.0842
    25.4913  25.6736  26.2026  26.9394  26.9596  27.3614  27.6620  27.7334
    28.0467  28.5122  28.5240  29.0072  29.1390  29.8042  30.1202  30.4123

          k = 0.3464-0.2001-0.0000 (  6974 PWs)   bands (ev):

   -13.3696 -13.3686  -7.0793  -7.0756  -1.1611  -1.0677   0.3873   0.3953
     0.5478   0.7310   1.1389   1.6818   2.0653   2.8808   3.0768   3.0807
     5.0512   5.0831   9.0398   9.0844   9.6682   9.7205  10.6871  10.8085
    11.7878  12.0477  12.2639  12.4100  13.2146  13.7891  14.2527  14.3555
    14.8155  14.9752  15.9684  16.0870  16.9314  17.6666  17.9052  18.4578
    19.3381  19.6608  20.1857  20.3720  20.8161  21.1675  21.3288  21.5133
    22.3395  23.2586  23.4316  23.6804  23.8337  24.4667  24.9647  24.9941
    25.5609  25.7508  26.1269  26.7261  27.1223  27.4501  27.7983  27.8477
    28.3204  28.5737  28.6117  28.9516  29.4624  30.0139  30.2902  30.4659

          k = 0.3656-0.2112-0.0000 (  6974 PWs)   bands (ev):

   -13.3410 -13.3399  -6.9656  -6.9625  -1.2178  -1.1350   0.2974   0.3015
     0.5313   0.6147   1.1158   1.7382   2.1642   2.8598   2.8636   2.9181
     5.0619   5.1246   8.8401   8.8832   9.5968   9.9261  10.6494  10.6700
    11.8548  12.0051  12.1309  12.3352  13.2270  13.8123  14.2080  14.5386
    14.7997  14.9639  15.8728  16.0365  16.9999  17.7540  17.7761  18.3050
    19.4306  19.7953  20.2678  20.4526  20.9768  21.2653  21.6112  21.8277
    22.5380  23.3261  23.5236  23.7192  24.0093  24.3652  24.8329  25.0643
    25.6956  25.7204  25.9769  26.6055  27.2038  27.4625  27.9112  27.9529
    28.4752  28.5338  29.0017  29.0081  29.8931  30.1426  30.4998  30.5745

          k = 0.3849-0.2223-0.0000 (  6980 PWs)   bands (ev):

   -13.3142 -13.3132  -6.8552  -6.8527  -1.2621  -1.1892   0.1963   0.2054
     0.4569   0.4961   1.1777   1.7985   2.2764   2.6513   2.6548   2.9439
     5.0428   5.1870   8.6379   8.6848   9.5366  10.1281  10.5532  10.6224
    11.9147  11.9617  12.0008  12.2677  13.2797  13.8685  14.0509  14.7199
    14.9165  14.9669  15.7844  15.9829  17.0324  17.6308  17.8710  18.1228
    19.5274  19.8729  20.3372  20.5107  21.1090  21.3313  21.8119  22.1829
    22.8722  23.3551  23.6282  23.8052  24.1343  24.1519  24.7766  25.0084
    25.6213  25.8166  25.9600  26.6224  27.2135  27.4979  27.9362  27.9757
    28.5019  28.6006  29.2521  29.4649  30.1404  30.3041  30.7086  30.7817

          k = 0.4041-0.2334-0.0000 (  6976 PWs)   bands (ev):

   -13.2895 -13.2885  -6.7500  -6.7479  -1.2933  -1.2295   0.0942   0.1058
     0.3611   0.3851   1.2819   1.8575   2.3593   2.4421   2.4851   2.9723
     5.0282   5.2382   8.4385   8.4949   9.4931  10.3032  10.4708  10.6057
    11.8799  11.9192  11.9300  12.2409  13.3640  13.8447  13.9733  14.8871
    14.9911  15.0867  15.7175  15.9294  17.0247  17.4695  17.9317  18.0161
    19.6179  19.9178  20.3948  20.5365  21.2226  21.3943  21.8751  22.4950
    23.3122  23.3263  23.7421  23.7941  24.0120  24.2311  24.8012  24.8617
    25.6676  25.7898  26.1644  26.7009  27.1548  27.5510  27.8621  27.9841
    28.5834  28.7188  29.5516  29.8582  30.1005  30.6550  30.8162  31.0174

          k = 0.4234-0.2446-0.0000 (  6980 PWs)   bands (ev):

   -13.2673 -13.2663  -6.6517  -6.6500  -1.3108  -1.2558  -0.0069   0.0049
     0.2698   0.2879   1.4001   1.9078   2.2217   2.2376   2.5447   2.9991
     5.0210   5.2778   8.2456   8.3161   9.4697  10.3307  10.5317  10.5997
    11.7837  11.8735  11.8813  12.2689  13.4723  13.6565  14.0911  14.9890
    15.0763  15.2768  15.6902  15.8782  16.9793  17.2939  17.7438  18.1832
    19.6947  19.9437  20.4313  20.5231  21.3106  21.4369  21.8511  22.6846
    23.1732  23.6332  23.6432  23.9744  24.2304  24.2345  24.8287  24.8869
    25.7787  25.8481  26.3822  26.7974  27.0310  27.6016  27.7307  28.0885
    28.7135  28.8158  29.8430  29.9656  30.1997  30.6893  31.0259  31.1082

          k = 0.4426-0.2557-0.0000 (  6970 PWs)   bands (ev):

   -13.2477 -13.2467  -6.5621  -6.5607  -1.3144  -1.2679  -0.1060  -0.0963
     0.1948   0.2089   1.5176   1.9162   2.0409   2.0680   2.6554   3.0238
     5.0241   5.3067   8.0627   8.1502   9.4671  10.2695  10.6054  10.6621
    11.7230  11.7975  11.8279  12.3168  13.4780  13.5987  14.2404  15.0406
    15.1934  15.4738  15.7204  15.8310  16.9022  17.1067  17.5688  18.3648
    19.7531  19.9567  20.4231  20.4656  21.3417  21.4034  21.8282  22.7264
    22.9262  23.6623  23.6661  24.2288  24.4809  24.5038  24.9183  25.0227
    25.9135  26.0004  26.5893  26.8698  26.8972  27.6307  27.6504  28.2458
    28.8616  28.8796  29.8950  30.0813  30.2885  30.4781  30.9734  31.2111

          k = 0.4619-0.2668-0.0000 (  6968 PWs)   bands (ev):

   -13.2308 -13.2298  -6.4828  -6.4817  -1.3044  -1.2659  -0.2032  -0.1977
     0.1425   0.1523   1.6188   1.7866   1.8623   2.0467   2.7600   3.0462
     5.0395   5.3262   7.8930   7.9993   9.4838  10.2067  10.6249  10.7603
    11.7010  11.7033  11.7886  12.3564  13.3215  13.7375  14.4142  15.0923
    15.2943  15.6655  15.7923  15.8050  16.8006  16.9111  17.4164  18.5532
    19.7903  19.9499  20.3271  20.3638  21.2743  21.2803  21.8824  22.6633
    22.7701  23.6304  23.7814  24.3205  24.7420  24.9828  25.0514  25.1879
    26.0657  26.2371  26.6293  26.8732  26.9935  27.5649  27.7138  28.4247
    28.9038  29.0165  29.7819  30.0404  30.2239  30.3930  30.6607  31.2327

          k = 0.4811-0.2779-0.0000 (  6951 PWs)   bands (ev):

   -13.2167 -13.2157  -6.4153  -6.4143  -1.2813  -1.2505  -0.2993  -0.2983
     0.1156   0.1213   1.6107   1.6123   1.7909   2.0694   2.8517   3.0657
     5.0683   5.3378   7.7401   7.8658   9.5166  10.1432  10.6599  10.8231
    11.6061  11.6714  11.7999  12.3756  13.1941  13.8831  14.6091  15.1493
    15.3982  15.7366  15.8691  15.9109  16.6824  16.7119  17.2973  18.7399
    19.8042  19.8817  20.1035  20.2493  21.1432  21.1461  21.9916  22.5439
    22.7666  23.6330  23.9359  24.4359  24.9101  25.1696  25.3312  25.4470
    26.2492  26.4023  26.6398  27.0866  27.0959  27.5292  27.7976  28.5758
    28.8926  29.1608  29.5863  29.7076  30.0654  30.4612  30.5149  31.0949

          k = 0.5003-0.2890-0.0000 (  6966 PWs)   bands (ev):

   -13.2054 -13.2044  -6.3603  -6.3594  -1.2466  -1.2230  -0.3976  -0.3925
     0.1144   0.1167   1.4394   1.4660   1.8575   2.0884   2.9279   3.0813
     5.1092   5.3428   7.6076   7.7525   9.5611  10.0749  10.7121  10.8687
    11.5097  11.6042  11.8707  12.3701  13.1009  14.0291  14.8218  15.2185
    15.5199  15.7080  15.9999  16.0280  16.5145  16.5566  17.2227  18.9108
    19.6930  19.7391  19.8286  20.1921  21.0096  21.0598  22.1269  22.4108
    22.8615  23.6873  24.1097  24.5568  24.9832  25.2574  25.4118  25.7959
    26.3569  26.4852  26.9230  27.1948  27.3773  27.5334  27.8750  28.6261
    28.8619  29.2192  29.3494  29.4279  29.9617  30.3907  30.5654  30.8968

          k = 0.5196-0.3001-0.0000 (  6971 PWs)   bands (ev):

   -13.1969 -13.1959  -6.3184  -6.3175  -1.2027  -1.1856  -0.4917  -0.4815
     0.1354   0.1364   1.2817   1.3167   1.9289   2.0978   2.9879   3.0921
     5.1586   5.3419   7.4994   7.6622   9.6126  10.0002  10.7820  10.9183
    11.4154  11.5168  11.9593  12.3408  13.0432  14.1675  15.0480  15.3064
    15.6568  15.6849  16.0460  16.1466  16.3284  16.4306  17.1957  19.0204
    19.3865  19.4724  19.7830  20.1759  20.9231  21.0073  22.2711  22.2780
    23.0040  23.7857  24.2956  24.6722  24.9147  25.2769  25.4661  26.0281
    26.3643  26.7336  27.1456  27.3519  27.5564  27.7622  27.8715  28.5891
    28.8278  29.0216  29.1538  29.3989  30.0036  30.3755  30.4035  30.8339

          k = 0.5388-0.3113-0.0000 (  6986 PWs)   bands (ev):

   -13.1911 -13.1901  -6.2894  -6.2886  -1.1548  -1.1433  -0.5756  -0.5606
     0.1717   0.1728   1.1469   1.1884   1.9878   2.0967   3.0323   3.0967
     5.2107   5.3346   7.4195   7.5977   9.6673   9.9215  10.8667  10.9843
    11.3255  11.4155  12.0438  12.2919  13.0166  14.2884  15.2782  15.4112
    15.6802  15.7919  16.0456  16.1701  16.1911  16.3118  17.1965  18.9478
    19.0526  19.4324  19.7378  20.1567  20.8974  20.9725  22.1579  22.4069
    23.1580  23.9175  24.4878  24.7193  24.7733  25.2091  25.5282  26.1891
    26.3983  26.9129  27.2718  27.5517  27.6634  27.7504  28.1140  28.5836
    28.8138  28.8676  28.9968  29.3473  30.1067  30.1759  30.3852  30.8995

          k = 0.5581-0.3224-0.0000 (  6989 PWs)   bands (ev):

   -13.1877 -13.1867  -6.2728  -6.2720  -1.1125  -1.1063  -0.6389  -0.6201
     0.2100   0.2111   1.0495   1.0965   2.0325   2.0851   3.0633   3.0939
     5.2584   5.3197   7.3709   7.5603   9.7229   9.8452  10.9541  11.0687
    11.2473  11.3052  12.1157  12.2318  13.0103  14.3770  15.4742  15.5132
    15.7319  15.8729  16.0117  16.0972  16.1219  16.2129  17.1891  18.8049
    18.8257  19.5267  19.6801  20.1256  20.9160  20.9501  22.0671  22.5112
    23.2900  24.0741  24.4707  24.6813  24.8496  25.0605  25.5790  26.3038
    26.4092  27.0219  27.3493  27.5417  27.7626  27.7792  28.3271  28.5346
    28.8584  28.9035  28.9584  29.2090  29.8175  30.3288  30.4864  30.9492

          k = 0.5773-0.3335-0.0000 (  6996 PWs)   bands (ev):

   -13.1866 -13.1857  -6.2675  -6.2668  -1.0926  -1.0917  -0.6640  -0.6438
     0.2279   0.2290   1.0118   1.0614   2.0634   2.0646   3.0823   3.0837
     5.2936   5.2969   7.3549   7.5488   9.7769   9.7820  11.0005  11.1452
    11.2115  11.2165  12.1727  12.1743  13.0107  14.4121  15.5521  15.5548
    15.8681  15.8688  15.9778  15.9883  16.1390  16.1411  17.1734  18.7505
    18.7510  19.6130  19.6180  20.1063  20.9363  20.9399  22.0304  22.5535
    23.3497  24.2476  24.2491  24.8651  24.8694  24.8894  25.5988  26.3757
    26.3775  27.0690  27.4205  27.4246  27.8152  27.8308  28.4273  28.4314
    28.9508  28.9519  29.0469  29.0511  29.6791  30.3486  30.7288  30.7330

          k = 0.5773-0.3224-0.0000 (  6990 PWs)   bands (ev):

   -13.1869 -13.1859  -6.2688  -6.2680  -1.0988  -1.0951  -0.6573  -0.6374
     0.2222   0.2240   1.0220   1.0708   2.0503   2.0753   3.0745   3.0895
     5.2790   5.3080   7.3587   7.5512   9.7535   9.8084  10.9879  11.1107
    11.2290  11.2450  12.1512  12.1975  13.0102  14.4019  15.5317  15.5390
    15.8110  15.8636  15.9919  16.0508  16.1161  16.1739  17.1826  18.7635
    18.7657  19.5830  19.6401  20.1136  20.9337  20.9372  22.0409  22.5412
    23.3310  24.1733  24.3394  24.7747  24.8886  24.9549  25.5934  26.3448
    26.4000  27.0525  27.3969  27.4644  27.8044  27.8176  28.3904  28.4712
    28.8996  28.9729  28.9733  29.1324  29.7090  30.3450  30.6120  30.8498

          k = 0.5773-0.3113-0.0000 (  6986 PWs)   bands (ev):

   -13.1876 -13.1866  -6.2723  -6.2715  -1.1148  -1.1074  -0.6376  -0.6185
     0.2049   0.2089   1.0526   1.0992   2.0348   2.0841   3.0640   3.0940
     5.2604   5.3165   7.3699   7.5578   9.7339   9.8383  10.9564  11.0549
    11.2567  11.2982  12.1367  12.2194  13.0085  14.3685  15.4501  15.4870
    15.7627  15.8599  15.9947  16.0775  16.1934  16.2207  17.2153  18.7994
    18.8078  19.5514  19.6471  20.1375  20.9161  20.9365  22.0735  22.5011
    23.2728  24.1302  24.4317  24.6887  24.8751  25.0406  25.5768  26.3034
    26.4191  27.0027  27.3966  27.5093  27.7779  27.7812  28.3657  28.4853
    28.8263  28.9203  28.9802  29.2181  29.7718  30.3319  30.5076  30.9457

          k = 0.5773-0.3001-0.0000 (  6986 PWs)   bands (ev):

   -13.1888 -13.1878  -6.2779  -6.2772  -1.1383  -1.1274  -0.6068  -0.5886
     0.1774   0.1844   1.1021   1.1453   2.0177   2.0906   3.0517   3.0969
     5.2392   5.3207   7.3878   7.5670   9.7218   9.8697  10.9148  10.9966
    11.2841  11.3542  12.1341  12.2390  13.0059  14.3094  15.2907  15.4258
    15.7642  15.8544  15.9906  16.0633  16.2875  16.3289  17.2741  18.8534
    18.8695  19.5221  19.6377  20.1774  20.8796  20.9398  22.1275  22.4315
    23.1821  24.1146  24.5150  24.6233  24.8487  25.1211  25.5492  26.2546
    26.4358  26.9286  27.4057  27.5460  27.7375  27.7488  28.3549  28.4312
    28.7534  28.9302  28.9760  29.2914  29.8361  30.3041  30.4248  30.9723

          k = 0.5773-0.2890-0.0000 (  6982 PWs)   bands (ev):

   -13.1904 -13.1894  -6.2855  -6.2847  -1.1672  -1.1531  -0.5671  -0.5500
     0.1422   0.1522   1.1680   1.2069   1.9992   2.0953   3.0377   3.0984
     5.2156   5.3207   7.4114   7.5774   9.7186   9.9028  10.8675  10.9384
    11.3041  11.4089  12.1465  12.2564  13.0035  14.2233  15.0961  15.3544
    15.7859  15.8403  15.9920  16.0581  16.3717  16.4709  17.3564  18.9207
    18.9440  19.4965  19.6159  20.2299  20.8260  20.9462  22.1999  22.3330
    23.0720  24.1150  24.5255  24.6334  24.8185  25.1941  25.5118  26.1996
    26.4518  26.8411  27.4026  27.5352  27.7296  27.7359  28.3125  28.3533
    28.6895  28.9645  28.9958  29.3429  29.8887  30.2561  30.3647  30.9604

          k = 0.5773-0.2779-0.0000 (  6976 PWs)   bands (ev):

   -13.1923 -13.1913  -6.2947  -6.2939  -1.1997  -1.1828  -0.5207  -0.5047
     0.1015   0.1143   1.2475   1.2814   1.9796   2.0986   3.0222   3.0986
     5.1899   5.3168   7.4398   7.5873   9.7253   9.9381  10.8164  10.8813
    11.3132  11.4595  12.1752  12.2718  13.0034  14.1107  14.8843  15.2779
    15.8100  15.8141  16.0118  16.0683  16.4674  16.6157  17.4573  18.9962
    19.0249  19.4759  19.5862  20.2912  20.7572  20.9562  22.2089  22.2864
    22.9559  24.1210  24.4801  24.6590  24.8262  25.2535  25.4701  26.1400
    26.4658  26.7492  27.3715  27.4655  27.7341  27.7927  28.1639  28.3539
    28.6249  28.9503  29.0908  29.3686  29.9295  30.1850  30.3240  30.9722

          k = 0.5773-0.2668-0.0000 (  6980 PWs)   bands (ev):

   -13.1946 -13.1936  -6.3053  -6.3045  -1.2342  -1.2148  -0.4691  -0.4545
     0.0577   0.0728   1.3382   1.3661   1.9591   2.1011   3.0054   3.0980
     5.1624   5.3093   7.4718   7.5950   9.7428   9.9758  10.7622  10.8258
    11.3113  11.5029  12.2197  12.2853  13.0078  13.9734  14.6636  15.2009
    15.7802  15.8277  16.0495  16.0993  16.5703  16.7619  17.5725  19.0749
    19.1061  19.4623  19.5522  20.3580  20.6763  20.9704  22.0644  22.3810
    22.8454  24.1254  24.4268  24.6220  24.8990  25.2789  25.4436  26.0774
    26.4691  26.6647  27.3128  27.3727  27.7598  27.8731  28.0102  28.3497
    28.5544  28.9368  29.1975  29.3714  29.9630  30.0943  30.2991  31.0215

          k = 0.5773-0.2557-0.0000 (  6976 PWs)   bands (ev):

   -13.1972 -13.1962  -6.3172  -6.3163  -1.2698  -1.2481  -0.4136  -0.4008
     0.0126   0.0291   1.4380   1.4587   1.9379   2.1035   2.9875   3.0965
     5.1334   5.2986   7.5063   7.5991   9.7715  10.0162  10.7055  10.7725
    11.3002  11.5362  12.2776  12.2975  13.0194  13.8151  14.4390  15.1269
    15.7459  15.8351  16.0998  16.1517  16.6775  16.9082  17.6985  19.1511
    19.1815  19.4580  19.5173  20.4262  20.5888  20.9901  21.9057  22.4711
    22.7563  24.1238  24.3554  24.5723  24.9937  25.2437  25.4584  26.0136
    26.4370  26.6125  27.2376  27.2718  27.7955  27.8309  27.9938  28.3353
    28.4779  28.9247  29.3055  29.3600  29.9904  29.9929  30.2920  31.1046

          k = 0.5773-0.2446-0.0000 (  6966 PWs)   bands (ev):

   -13.2000 -13.1990  -6.3301  -6.3292  -1.3056  -1.2820  -0.3551  -0.3453
    -0.0322  -0.0155   1.5454   1.5566   1.9165   2.1070   2.9690   3.0944
     5.1032   5.2852   7.5420   7.5985   9.8116  10.0592  10.6466  10.7222
    11.2831  11.5563  12.3089  12.3453  13.0401  13.6399  14.2147  15.0580
    15.7142  15.8347  16.1586  16.2215  16.7870  17.0532  17.8324  19.2178
    19.2447  19.4653  19.4847  20.4570  20.5366  21.0168  21.7393  22.5175
    22.7296  24.1134  24.2559  24.5349  25.0921  25.1693  25.4930  25.9501
    26.3586  26.5987  27.1593  27.1665  27.6798  27.8296  28.1011  28.3094
    28.3993  28.9105  29.3450  29.4055  29.8915  30.0097  30.3111  31.2135

          k = 0.5773-0.2334-0.0000 (  6962 PWs)   bands (ev):

   -13.2030 -13.2020  -6.3438  -6.3429  -1.3413  -1.3158  -0.2945  -0.2905
    -0.0737  -0.0601   1.6563   1.6588   1.8952   2.1136   2.9499   3.0920
     5.0723   5.2696   7.5776   7.5926   9.8621  10.1045  10.5859  10.6756
    11.2632  11.5609  12.3201  12.4187  13.0705  13.4532  13.9949  14.9954
    15.6866  15.8298  16.2229  16.3039  16.8974  17.1954  17.9720  19.2650
    19.2923  19.4581  19.4844  20.3779  20.5976  21.0522  21.5717  22.4902
    22.7956  24.0930  24.1312  24.5095  25.0789  25.1886  25.5243  25.8881
    26.2592  26.5877  27.0565  27.0941  27.5336  27.8507  28.2101  28.2762
    28.3324  28.8882  29.3332  29.4862  29.8052  30.0245  30.3620  31.3402

          k = 0.5773-0.2223-0.0000 (  6972 PWs)   bands (ev):

   -13.2062 -13.2052  -6.3582  -6.3572  -1.3765  -1.3493  -0.2442  -0.2333
    -0.1048  -0.1029   1.7536   1.7739   1.8770   2.1272   2.9308   3.0894
     5.0409   5.2523   7.5804   7.6128   9.9214  10.1510  10.5243  10.6341
    11.2433  11.5487  12.3314  12.4929  13.1081  13.2612  13.7857  14.9392
    15.6638  15.8228  16.2901  16.3950  17.0074  17.3323  18.1154  19.2824
    19.3273  19.4429  19.5066  20.2904  20.6778  21.0986  21.4092  22.4457
    22.8970  23.9888  24.0618  24.4890  24.9826  25.2798  25.5422  25.8295
    26.1538  26.5501  26.9416  27.0602  27.3988  27.8477  28.2138  28.2424
    28.3826  28.8543  29.3220  29.5349  29.7512  30.0513  30.4406  31.4779

          k = 0.5773-0.2112-0.0000 (  6968 PWs)   bands (ev):

   -13.2095 -13.2085  -6.3730  -6.3719  -1.4108  -1.3820  -0.2288  -0.1816
    -0.1343  -0.1022   1.8373   1.8395   1.9147   2.1552   2.9120   3.0869
     5.0094   5.2336   7.5627   7.6456   9.9866  10.1965  10.4638  10.5997
    11.2260  11.5197  12.3425  12.5588  13.0743  13.1420  13.6006  14.8893
    15.6462  15.8150  16.3583  16.4920  17.1158  17.4609  18.2606  19.2698
    19.3572  19.4321  19.5220  20.2168  20.7640  21.1578  21.2577  22.4127
    23.0027  23.8345  24.0202  24.4678  24.8868  25.3617  25.5392  25.7773
    26.0487  26.4742  26.8210  27.0671  27.2783  27.8139  28.1473  28.2112
    28.5147  28.8090  29.3070  29.5466  29.7434  30.1030  30.5393  31.6211

          k = 0.5773-0.2001-0.0000 (  6974 PWs)   bands (ev):

   -13.2129 -13.2119  -6.3880  -6.3869  -1.4441  -1.4138  -0.2511  -0.1988
    -0.0947  -0.0600   1.8220   1.9030   2.0345   2.2076   2.8943   3.0848
     4.9780   5.2139   7.5394   7.6756  10.0525  10.2341  10.4103  10.5760
    11.2136  11.4753  12.3525  12.5879  12.9222  13.1339  13.4801  14.8453
    15.6342  15.8073  16.4257  16.5925  17.2212  17.5768  18.4049  19.2373
    19.3878  19.4135  19.5230  20.1640  20.8557  21.1214  21.2321  22.3979
    23.1019  23.6720  23.9696  24.4418  24.7965  25.4289  25.5104  25.7342
    25.9498  26.3670  26.6951  27.1076  27.1738  27.7528  28.0792  28.1761
    28.6586  28.7541  29.2968  29.5310  29.7798  30.1767  30.6524  31.7212

          k = 0.5773-0.1890-0.0000 (  6968 PWs)   bands (ev):

   -13.2164 -13.2154  -6.4031  -6.4020  -1.4761  -1.4445  -0.2862  -0.2373
    -0.0320  -0.0031   1.8016   1.9397   2.1618   2.2872   2.8786   3.0836
     4.9470   5.1938   7.5111   7.7021  10.1116  10.2438  10.3827  10.5683
    11.2078  11.4180  12.3593  12.5125  12.8741  13.0370  13.4731  14.8066
    15.6282  15.8002  16.4908  16.6944  17.3218  17.6738  18.5442  19.1905
    19.3887  19.4222  19.5094  20.1315  20.9533  21.0051  21.3205  22.4030
    23.1865  23.5042  23.9132  24.4079  24.7145  25.4584  25.4715  25.6975
    25.8662  26.2412  26.5644  27.0864  27.1683  27.6754  28.0133  28.1268
    28.6917  28.8070  29.3073  29.5043  29.8473  30.2624  30.7751  31.7191

          k = 0.5773-0.1779-0.0000 (  6962 PWs)   bands (ev):

   -13.2199 -13.2189  -6.4182  -6.4170  -1.5069  -1.4739  -0.3236  -0.2759
     0.0325   0.0578   1.7809   1.9567   2.2905   2.3845   2.8670   3.0838
     4.9167   5.1734   7.4784   7.7246  10.1545  10.2087  10.3965  10.5826
    11.2095  11.3513  12.3529  12.3593  12.8968  12.9120  13.5377  14.7728
    15.6287  15.7940  16.5524  16.7958  17.4153  17.7440  18.6718  19.1314
    19.3714  19.4567  19.4934  20.1127  20.9095  21.0572  21.4233  22.4276
    23.2481  23.3334  23.8566  24.3633  24.6414  25.3940  25.4742  25.6601
    25.8101  26.1096  26.4298  27.0163  27.2342  27.5968  27.9482  28.0567
    28.6261  28.9554  29.3468  29.4808  29.9339  30.3518  30.9034  31.7007

          k = 0.5773-0.1667-0.0000 (  6960 PWs)   bands (ev):

   -13.2233 -13.2223  -6.4330  -6.4317  -1.5361  -1.5020  -0.3606  -0.3130
     0.0968   0.1196   1.7605   1.9628   2.4183   2.4860   2.8636   3.0865
     4.8873   5.1530   7.4422   7.7428  10.1518  10.1755  10.4268  10.6187
    11.2178  11.2815  12.1762  12.3457  12.7637  12.9724  13.6298  14.7430
    15.6360  15.7891  16.6094  16.8942  17.4985  17.7788  18.7759  19.0667
    19.3736  19.4641  19.5195  20.1003  20.8339  21.1669  21.5388  22.4703
    23.1616  23.2785  23.8070  24.3056  24.5733  25.3300  25.4318  25.6167
    25.7707  25.9947  26.2920  26.9624  27.2761  27.5463  27.8817  27.9661
    28.5626  29.0961  29.4142  29.4742  30.0319  30.4403  31.0334  31.6704

          k = 0.5773-0.1556-0.0000 (  6976 PWs)   bands (ev):

   -13.2267 -13.2257  -6.4475  -6.4462  -1.5638  -1.5286  -0.3962  -0.3482
     0.1603   0.1810   1.7408   1.9632   2.5425   2.5766   2.8778   3.0935
     4.8589   5.1330   7.4031   7.7565  10.0895  10.1770  10.4567  10.6624
    11.2200  11.2278  12.0091  12.3073  12.6628  13.0354  13.7351  14.7164
    15.6505  15.7857  16.6611  16.9872  17.5671  17.7724  18.8421  19.0059
    19.4003  19.4835  19.5715  20.0897  20.7768  21.2812  21.6648  22.5294
    22.9905  23.2737  23.7689  24.2331  24.5029  25.2796  25.3617  25.5656
    25.6898  25.9424  26.1521  26.9227  27.2500  27.5658  27.8125  27.8602
    28.5058  29.2112  29.5040  29.5043  30.1364  30.5254  31.1605  31.6318

          k = 0.5773-0.1445-0.0000 (  6988 PWs)   bands (ev):

   -13.2301 -13.2291  -6.4615  -6.4601  -1.5899  -1.5536  -0.4299  -0.3813
     0.2224   0.2414   1.7219   1.9605   2.6380   2.6587   2.9247   3.1083
     4.8317   5.1136   7.3619   7.7656  10.0263  10.1661  10.4809  10.6858
    11.1875  11.2269  11.8714  12.2387  12.6051  13.0952  13.8478  14.6921
    15.6725  15.7843  16.7070  17.0711  17.6151  17.7249  18.8669  18.9554
    19.4513  19.5434  19.6336  20.0803  20.7365  21.3982  21.7981  22.6024
    22.8224  23.2390  23.7400  24.1448  24.4212  25.2530  25.2816  25.5077
    25.5567  25.9495  26.0111  26.8939  27.1722  27.6249  27.7411  27.7564
    28.4596  29.2787  29.5914  29.6109  30.2440  30.6060  31.2792  31.5884

          k = 0.5773-0.1334-0.0000 (  6982 PWs)   bands (ev):

   -13.2333 -13.2323  -6.4749  -6.4735  -1.6142  -1.5770  -0.4616  -0.4123
     0.2827   0.2999   1.7040   1.9560   2.6643   2.7602   3.0080   3.1367
     4.8060   5.0948   7.3193   7.7703   9.9639  10.1487  10.4984  10.6616
    11.1929  11.2055  11.7874  12.1520  12.5807  13.1495  13.9645  14.6692
    15.7019  15.7852  16.7468  17.1406  17.6364  17.6455  18.8683  18.9167
    19.5210  19.6275  19.7122  20.0749  20.7126  21.5154  21.9344  22.6609
    22.6868  23.1871  23.7124  24.0406  24.3229  25.1997  25.2513  25.4055
    25.4477  25.8705  25.9767  26.8722  27.0780  27.5814  27.6697  27.7616
    28.4293  29.3076  29.7228  29.7292  30.3516  30.6818  31.3830  31.5438

          k = 0.5773-0.1223-0.0000 (  6986 PWs)   bands (ev):

   -13.2363 -13.2353  -6.4876  -6.4861  -1.6368  -1.5988  -0.4910  -0.4410
     0.3407   0.3562   1.6871   1.9505   2.6688   2.8379   3.1127   3.1867
     4.7818   5.0770   7.2762   7.7709   9.9034  10.1284  10.5095  10.5903
    11.1113  11.2692  11.7721  12.0648  12.5742  13.1973  14.0826  14.6465
    15.7385  15.7889  16.7804  17.1853  17.5507  17.6276  18.8697  18.8892
    19.5978  19.7041  19.8201  20.0817  20.7064  21.6292  22.0625  22.5158
    22.7791  23.1324  23.6792  23.9216  24.2094  25.1162  25.2509  25.2549
    25.4045  25.7320  26.0090  26.8528  26.9804  27.4590  27.6029  27.8347
    28.4228  29.3183  29.8549  29.8725  30.4562  30.7536  31.4655  31.5012

          k = 0.5773-0.1112-0.0000 (  6998 PWs)   bands (ev):

   -13.2392 -13.2382  -6.4995  -6.4980  -1.6576  -1.6188  -0.5181  -0.4674
     0.3959   0.4096   1.6714   1.9446   2.6636   2.8880   3.2254   3.2611
     4.7592   5.0603   7.2332   7.7678   9.8453  10.1073  10.4912  10.5155
    10.9949  11.3554  11.8119  11.9889  12.5762  13.2383  14.2000  14.6232
    15.7816  15.7960  16.8079  17.1823  17.4716  17.5885  18.8722  18.8844
    19.6641  19.7668  19.9483  20.1141  20.7203  21.7352  22.1361  22.4326
    22.8724  23.0901  23.6354  23.7895  24.0877  25.0210  25.1137  25.2124
    25.4144  25.6004  26.0421  26.8305  26.8843  27.3294  27.5470  27.8924
    28.4497  29.3165  29.9844  30.0272  30.5545  30.8225  31.4646  31.5244

          k = 0.5773-0.1000-0.0000 (  7000 PWs)   bands (ev):

   -13.2419 -13.2409  -6.5106  -6.5090  -1.6765  -1.6370  -0.5427  -0.4914
     0.4477   0.4598   1.6569   1.9385   2.6545   2.9162   3.3389   3.3528
     4.7384   5.0448   7.1910   7.7614   9.7900  10.0866  10.3800  10.5176
    10.8652  11.4422  11.8842  11.9340  12.5826  13.2723  14.3141  14.5985
    15.8068  15.8303  16.8292  17.1101  17.4358  17.5255  18.8658  18.9142
    19.7034  19.8217  20.0805  20.1853  20.7575  21.8275  22.0741  22.4913
    22.9442  23.0897  23.5764  23.6466  23.9681  24.8953  25.0097  25.1335
    25.4180  25.5233  26.0746  26.7918  26.7999  27.2010  27.5091  27.9218
    28.5142  29.3008  30.1137  30.1816  30.6425  30.8898  31.4381  31.5652

          k = 0.5773-0.0889-0.0000 (  6996 PWs)   bands (ev):

   -13.2444 -13.2434  -6.5206  -6.5190  -1.6935  -1.6534  -0.5649  -0.5129
     0.4958   0.5062   1.6437   1.9325   2.6441   2.9313   3.4490   3.4519
     4.7194   5.0306   7.1504   7.7524   9.7378  10.0667  10.2661  10.5170
    10.7361  11.5092  11.9127  11.9738  12.5915  13.2997  14.4226  14.5719
    15.8222  15.8828  16.8445  16.9922  17.4253  17.4474  18.8699  18.9542
    19.7138  19.8724  20.2070  20.2945  20.8207  21.8995  21.9460  22.6217
    22.9694  23.1610  23.4949  23.4974  23.8624  24.7539  24.9272  25.0388
    25.3107  25.5776  26.1064  26.7045  26.7575  27.0770  27.4952  27.9270
    28.6088  29.2682  30.2380  30.3323  30.7169  30.9563  31.4263  31.5978

          k = 0.5773-0.0778-0.0000 (  7000 PWs)   bands (ev):

   -13.2466 -13.2456  -6.5297  -6.5280  -1.7086  -1.6679  -0.5846  -0.5320
     0.5397   0.5483   1.6319   1.9267   2.6335   2.9394   3.5500   3.5538
     4.7024   5.0179   7.1119   7.7414   9.6891  10.0475  10.1561  10.5143
    10.6153  11.5396  11.9358  12.0718  12.6022  13.3210  14.5231  14.5433
    15.8424  15.9376  16.8535  16.8602  17.3636  17.4144  18.8839  18.9971
    19.7051  19.9224  20.3223  20.4300  20.9094  21.8079  21.9453  22.7672
    22.9887  23.2630  23.3367  23.4003  23.7792  24.6147  24.8493  24.9352
    25.1883  25.6559  26.1377  26.6233  26.7031  26.9596  27.5074  27.9178
    28.7214  29.2171  30.3497  30.4771  30.7782  31.0217  31.4316  31.6311

          k = 0.5773-0.0667-0.0000 (  6996 PWs)   bands (ev):

   -13.2486 -13.2476  -6.5376  -6.5359  -1.7218  -1.6805  -0.6017  -0.5486
     0.5788   0.5859   1.6215   1.9214   2.6235   2.9436   3.6433   3.6498
     4.6874   5.0067   7.0765   7.7292   9.6443  10.0213  10.0620  10.4980
    10.5195  11.5371  11.9948  12.1720  12.6145  13.3365  14.5130  14.6131
    15.8677  15.9923  16.7288  16.8565  17.2824  17.3945  18.9059  19.0363
    19.6868  19.9757  20.4241  20.5809  21.0182  21.6744  21.9617  22.9141
    23.0236  23.1739  23.2721  23.3909  23.7201  24.4848  24.7713  24.8253
    25.0690  25.7349  26.1689  26.5493  26.6401  26.8506  27.5442  27.9020
    28.8414  29.1478  30.4377  30.6131  30.8347  31.0853  31.4517  31.6703

          k = 0.5773-0.0556-0.0000 (  7008 PWs)   bands (ev):

   -13.2503 -13.2493  -6.5444  -6.5427  -1.7329  -1.6913  -0.6162  -0.5627
     0.6128   0.6184   1.6126   1.9166   2.6145   2.9458   3.7278   3.7356
     4.6745   4.9970   7.0447   7.7168   9.6040   9.9487  10.0270  10.4100
    10.5100  11.5188  12.0680  12.2693  12.6283  13.3469  14.4819  14.6906
    15.8974  16.0447  16.6068  16.8526  17.2103  17.3652  18.9334  19.0674
    19.6647  20.0355  20.5121  20.7400  21.1322  21.5587  21.9493  23.0025
    23.0510  23.0627  23.1876  23.4891  23.6891  24.3683  24.6917  24.7111
    24.9552  25.8090  26.2006  26.4834  26.5733  26.7512  27.6014  27.8845
    28.9611  29.0633  30.4896  30.7361  30.9006  31.1476  31.4784  31.6799

          k = 0.5773-0.0445-0.0000 (  7000 PWs)   bands (ev):

   -13.2517 -13.2507  -6.5501  -6.5483  -1.7421  -1.7001  -0.6281  -0.5742
     0.6412   0.6455   1.6053   1.9125   2.6069   2.9468   3.8009   3.8091
     4.6637   4.9890   7.0173   7.7049   9.5689   9.8704  10.0134  10.3325
    10.5063  11.4971  12.1389  12.3592  12.6432  13.3528  14.4516  14.7540
    15.9299  16.0922  16.4993  16.8424  17.1522  17.3299  18.9631  19.0889
    19.6423  20.1024  20.5871  20.9024  21.2065  21.5018  21.9111  22.8386
    22.9889  23.1939  23.2084  23.5463  23.7150  24.2690  24.5947  24.6113
    24.8486  25.8756  26.2332  26.4268  26.5077  26.6622  27.6733  27.8680
    28.9685  29.0739  30.5039  30.8395  30.9826  31.2134  31.5000  31.6745

          k = 0.5773-0.0333-0.0000 (  7002 PWs)   bands (ev):

   -13.2528 -13.2518  -6.5545  -6.5527  -1.7492  -1.7069  -0.6373  -0.5832
     0.6637   0.6669   1.5995   1.9092   2.6007   2.9471   3.8603   3.8685
     4.6552   4.9828   6.9951   7.6944   9.5400   9.8058  10.0039  10.2719
    10.5034  11.4775  12.1986  12.4368  12.6586  13.3553  14.4241  14.8026
    15.9623  16.1324  16.4109  16.8278  17.1098  17.2934  18.9913  19.1016
    19.6221  20.1730  20.6492  21.0643  21.1762  21.5654  21.8495  22.6731
    22.8947  23.2806  23.3139  23.5468  23.8050  24.1905  24.4789  24.5329
    24.7519  25.9328  26.2675  26.3808  26.4477  26.5837  27.7524  27.8541
    28.8710  29.1736  30.4928  30.9159  31.0740  31.2895  31.5064  31.6726

          k = 0.5773-0.0222-0.0000 (  7008 PWs)   bands (ev):

   -13.2536 -13.2526  -6.5577  -6.5559  -1.7543  -1.7119  -0.6440  -0.5896
     0.6800   0.6825   1.5954   1.9068   2.5962   2.9472   3.9042   3.9122
     4.6491   4.9783   6.9787   7.6863   9.5184   9.7581   9.9973  10.2287
    10.5012  11.4625  12.2426  12.4971  12.6725  13.3555  14.4020  14.8365
    15.9905  16.1630  16.3450  16.8124  17.0825  17.2614  19.0147  19.1079
    19.6059  20.2398  20.6984  21.0977  21.2214  21.6911  21.7667  22.5149
    22.8165  23.3541  23.4117  23.5320  23.9134  24.1358  24.3662  24.4623
    24.6707  25.9786  26.3039  26.3468  26.3979  26.5157  27.8284  27.8436
    28.7813  29.2531  30.4718  30.9637  31.1640  31.3763  31.4930  31.6740

          k = 0.5773-0.0111-0.0000 (  7012 PWs)   bands (ev):

   -13.2541 -13.2531  -6.5596  -6.5578  -1.7574  -1.7148  -0.6479  -0.5935
     0.6899   0.6918   1.5929   1.9053   2.5934   2.9472   3.9311   3.9390
     4.6453   4.9755   6.9686   7.6811   9.5049   9.7290   9.9933  10.2028
    10.4998  11.4532  12.2692  12.5357  12.6824  13.3547  14.3876  14.8563
    16.0099  16.1823  16.3044  16.8008  17.0676  17.2394  19.0301  19.1104
    19.5954  20.2902  20.7330  21.0294  21.3664  21.6673  21.8140  22.3801
    22.7663  23.4113  23.4769  23.5168  24.0205  24.1055  24.2598  24.4103
    24.6142  26.0096  26.3257  26.3416  26.3637  26.4591  27.8371  27.8865
    28.7148  29.3051  30.4533  30.9882  31.2394  31.4598  31.4651  31.6807

          k = 0.5773 0.0000-0.0000 (  7010 PWs)   bands (ev):

   -13.2542 -13.2532  -6.5602  -6.5584  -1.7584  -1.7158  -0.6493  -0.5948
     0.6932   0.6950   1.5920   1.9048   2.5925   2.9472   3.9401   3.9480
     4.6441   4.9746   6.9652   7.6793   9.5003   9.7191   9.9920  10.1942
    10.4994  11.4501  12.2781  12.5490  12.6860  13.3543  14.3825  14.8628
    16.0168  16.1888  16.2907  16.7965  17.0629  17.2315  19.0355  19.1110
    19.5918  20.3095  20.7466  21.0017  21.4559  21.5932  21.8730  22.3178
    22.7491  23.4354  23.4998  23.5085  24.0929  24.0965  24.1880  24.3906
    24.5936  26.0209  26.3186  26.3511  26.3664  26.4280  27.8349  27.9090
    28.6896  29.3232  30.4460  30.9956  31.2736  31.4467  31.5007  31.6950

          k = 0.5581 0.0000-0.0000 (  7004 PWs)   bands (ev):

   -13.2558 -13.2548  -6.5680  -6.5662  -1.7534  -1.7099  -0.6352  -0.5810
     0.6945   0.6962   1.5767   1.9021   2.5820   2.9452   3.9432   3.9511
     4.6478   4.9831   6.9741   7.6897   9.5003   9.7224  10.0041  10.2016
    10.5013  11.4502  12.2685  12.5526  12.6891  13.3561  14.3780  14.8805
    16.0192  16.1877  16.2971  16.7820  17.0654  17.2533  19.0253  19.1027
    19.5923  20.2954  20.7296  21.0105  21.4212  21.5449  21.7924  22.2627
    22.7008  23.4358  23.4653  23.6234  24.0170  24.1211  24.2029  24.4866
    24.6887  26.0418  26.3336  26.3445  26.3705  26.4548  27.8312  27.9074
    28.6907  29.3057  30.4046  30.9977  31.2278  31.3159  31.4645  31.6558

          k = 0.5388 0.0000-0.0000 (  7002 PWs)   bands (ev):

   -13.2605 -13.2595  -6.5911  -6.5892  -1.7383  -1.6924  -0.5932  -0.5399
     0.6983   0.7001   1.5330   1.8929   2.5509   2.9396   3.9523   3.9601
     4.6598   5.0056   7.0018   7.7206   9.5002   9.7320  10.0394  10.2240
    10.5071  11.4507  12.2411  12.5632  12.6983  13.3609  14.3662  14.9317
    16.0261  16.1842  16.3162  16.7450  17.0746  17.3092  18.9947  19.0794
    19.5928  20.2488  20.6763  21.0344  21.3163  21.4105  21.5990  22.1152
    22.5882  23.4153  23.5086  23.7508  23.9099  24.1527  24.3095  24.7043
    24.8944  26.1067  26.3279  26.3755  26.3805  26.5329  27.8204  27.9001
    28.6934  29.2561  30.2908  30.9739  31.1034  31.1169  31.3408  31.5108

          k = 0.5196 0.0000-0.0000 (  6988 PWs)   bands (ev):

   -13.2683 -13.2673  -6.6286  -6.6267  -1.7132  -1.6636  -0.5244  -0.4725
     0.7047   0.7065   1.4659   1.8751   2.5003   2.9309   3.9674   3.9751
     4.6816   5.0345   7.0504   7.7719   9.4999   9.7479  10.0948  10.2623
    10.5169  11.4525  12.1989  12.5810  12.7135  13.3677  14.3510  15.0129
    16.0372  16.1781  16.3470  16.6979  17.0916  17.3832  18.9443  19.0452
    19.5888  20.1569  20.5775  21.0491  21.1605  21.2069  21.3918  21.9129
    22.4651  23.4069  23.5191  23.8155  23.8470  24.2194  24.5154  24.9796
    25.1297  26.2157  26.3031  26.3989  26.4384  26.6586  27.8030  27.8810
    28.6953  29.1842  30.1224  30.8255  30.9262  30.9482  31.2108  31.3647

          k = 0.5003 0.0000-0.0000 (  6998 PWs)   bands (ev):

   -13.2790 -13.2780  -6.6795  -6.6775  -1.6782  -1.6240  -0.4305  -0.3804
     0.7136   0.7153   1.3813   1.8479   2.4326   2.9197   3.9884   3.9961
     4.7135   5.0616   7.1226   7.8434   9.4981   9.7696  10.1657  10.3178
    10.5314  11.4566  12.1460  12.6057  12.7346  13.3758  14.3366  15.1200
    16.0522  16.1690  16.3880  16.6489  17.1155  17.4633  18.8746  19.0068
    19.5713  20.0043  20.4135  20.8691  20.9723  21.1402  21.2406  21.6971
    22.3595  23.3772  23.5025  23.7708  23.8854  24.3203  24.7588  25.2762
    25.3586  26.2730  26.3479  26.4329  26.5247  26.8285  27.7805  27.8436
    28.6922  29.1063  29.9113  30.5398  30.7174  30.8345  31.0668  31.2569

          k = 0.4811 0.0000-0.0000 (  6992 PWs)   bands (ev):

   -13.2925 -13.2915  -6.7421  -6.7399  -1.6335  -1.5740  -0.3137  -0.2658
     0.7249   0.7266   1.2847   1.8114   2.3512   2.9063   4.0153   4.0228
     4.7535   5.0799   7.2206   7.9345   9.4925   9.7968  10.2465  10.3925
    10.5521  11.4648  12.0865  12.6371  12.7613  13.3855  14.3264  15.2496
    16.0700  16.1566  16.4370  16.6025  17.1444  17.5402  18.7862  18.9724
    19.5256  19.7861  20.1699  20.5842  20.7673  21.1518  21.1640  21.5187
    22.2736  23.3101  23.4713  23.7699  23.8999  24.4322  24.9766  25.5619
    25.5628  26.2458  26.4444  26.4942  26.6620  27.0380  27.7554  27.7874
    28.6779  29.0436  29.6637  30.2020  30.4847  30.7840  30.8310  31.1775

          k = 0.4619 0.0000-0.0000 (  6993 PWs)   bands (ev):

   -13.3087 -13.3077  -6.8147  -6.8122  -1.5795  -1.5142  -0.1773  -0.1315
     0.7384   0.7401   1.1818   1.7670   2.2600   2.8906   4.0479   4.0553
     4.7984   5.0855   7.3449   8.0449   9.4796   9.8289  10.3319  10.4849
    10.5840  11.4790  12.0247  12.6751  12.7936  13.3976  14.3234  15.3982
    16.0888  16.1412  16.4910  16.5612  17.1757  17.6063  18.6792  18.9508
    19.4335  19.5143  19.8676  20.2706  20.6027  21.1143  21.1390  21.4436
    22.1997  23.2131  23.4311  23.7999  23.9109  24.5376  25.1150  25.7312
    25.8003  26.2349  26.4823  26.5969  26.8353  27.2783  27.7256  27.7325
    28.6458  29.0175  29.3822  29.8394  30.2175  30.5939  30.7891  30.9749

          k = 0.4426 0.0000-0.0000 (  7005 PWs)   bands (ev):

   -13.3273 -13.3263  -6.8954  -6.8926  -1.5168  -1.4449  -0.0259   0.0184
     0.7542   0.7559   1.0788   1.7169   2.1633   2.8727   4.0861   4.0933
     4.8436   5.0778   7.4942   8.1736   9.4554   9.8647  10.4191  10.5768
    10.6468  11.5006  11.9653  12.7194  12.8308  13.4136  14.3302  15.5623
    16.0987  16.1305  16.5186  16.5531  17.2057  17.6553  18.5523  18.9483
    19.2084  19.2823  19.5428  19.9508  20.4619  21.0876  21.1134  21.4653
    22.1309  23.1000  23.3833  23.8278  23.9467  24.6263  25.1423  25.8522
    25.9566  26.2436  26.4833  26.7455  26.9857  27.5304  27.6872  27.7213
    28.5932  29.0454  29.0685  29.4522  29.9235  30.3812  30.6902  30.7866

          k = 0.4234 0.0000-0.0000 (  6997 PWs)   bands (ev):

   -13.3480 -13.3470  -6.9826  -6.9793  -1.4458  -1.3668   0.1315   0.1788
     0.7721   0.7737   0.9859   1.6646   2.0650   2.8526   4.1296   4.1367
     4.8828   5.0603   7.6654   8.3190   9.4173   9.9025  10.5060  10.6466
    10.7635  11.5289  11.9154  12.7696  12.8728  13.4351  14.3489  15.7382
    16.0790  16.1425  16.4877  16.6050  17.2286  17.6834  18.4013  18.8857
    18.9601  19.0805  19.2232  19.6473  20.3340  21.0729  21.1378  21.5202
    22.0630  22.9799  23.3273  23.8341  24.0214  24.6899  25.0652  25.9075
    26.0299  26.2375  26.4669  26.9207  27.0661  27.7015  27.7212  27.7679
    28.5250  28.7291  29.0545  29.1387  29.6401  30.1192  30.5010  30.6125

          k = 0.4041 0.0000-0.0000 (  7005 PWs)   bands (ev):

   -13.3707 -13.3696  -7.0744  -7.0707  -1.3675  -1.2804   0.2731   0.3441
     0.7918   0.7933   0.9240   1.6145   1.9697   2.8308   4.1783   4.1852
     4.9035   5.0447   7.8541   8.4780   9.3653   9.9395  10.5894  10.7247
    10.9050  11.5590  11.8865  12.8252  12.9188  13.4630  14.3814  15.9214
    16.0442  16.1596  16.4573  16.6505  17.2355  17.6895  18.2173  18.5590
    18.8222  18.9313  18.9934  19.4001  20.2157  21.1034  21.1800  21.5815
    21.9964  22.8588  23.2609  23.8297  24.1172  24.7200  24.9128  25.8819
    26.0430  26.1887  26.4454  27.0522  27.0841  27.7422  27.7736  27.8803
    28.3156  28.5111  28.7402  29.2989  29.3846  29.8222  30.3613  30.3898

          k = 0.3849 0.0000-0.0000 (  6997 PWs)   bands (ev):

   -13.3949 -13.3938  -7.1693  -7.1651  -1.2825  -1.1864   0.3534   0.5071
     0.8132   0.8147   0.9352   1.5725   1.8835   2.8077   4.2319   4.2385
     4.8883   5.0487   8.0543   8.6433   9.3061   9.9725  10.6690  10.8237
    11.0553  11.5832  11.8947  12.8855  12.9683  13.4980  14.4291  15.9997
    16.1062  16.1722  16.4267  16.6790  17.2115  17.6727  17.9908  18.2377
    18.5830  18.6864  18.9367  19.2971  20.1069  21.1611  21.2356  21.6390
    21.9367  22.7417  23.1812  23.8194  24.2172  24.7090  24.7118  25.7875
    25.9796  26.1439  26.4036  26.9483  27.1984  27.6769  27.7408  27.8862
    27.9966  28.4272  28.6982  29.1626  29.5076  29.5500  30.1157  30.2297

          k = 0.3656 0.0000-0.0000 (  7017 PWs)   bands (ev):

   -13.4205 -13.4194  -7.2659  -7.2611  -1.1922  -1.0858   0.3445   0.6517
     0.8361   0.8376   1.0466   1.5433   1.8198   2.7844   4.2900   4.2964
     4.8412   5.0694   8.2572   8.7943   9.2630   9.9983  10.7490  10.9409
    11.2050  11.6039  11.9491  12.9497  13.0203  13.5400  14.4928  15.9455
    16.1754  16.2814  16.3948  16.6776  17.1380  17.6316  17.7251  17.9274
    18.3832  18.4952  18.8274  19.3416  20.0085  21.2185  21.3013  21.6860
    21.8972  22.6347  23.0845  23.7996  24.3034  24.4809  24.6541  25.6602
    25.8532  26.1252  26.3096  26.7572  27.2439  27.3075  27.4710  27.9285
    28.0171  28.3513  28.7019  29.0672  29.3229  29.6658  29.9729  30.0543

          k = 0.3464 0.0000-0.0000 (  7021 PWs)   bands (ev):

   -13.4470 -13.4459  -7.3629  -7.3575  -1.0975  -0.9798   0.2794   0.7563
     0.8603   0.8617   1.2237   1.5185   1.8100   2.7625   4.3524   4.3585
     4.7771   5.0934   8.4452   8.8808   9.2975  10.0153  10.8321  11.0722
    11.3392  11.6462  12.0436  13.0166  13.0741  13.5887  14.5727  15.8809
    16.1635  16.3333  16.4522  16.6264  17.0095  17.4387  17.5744  17.6327
    18.2690  18.3500  18.7645  19.4379  19.9216  21.2426  21.3747  21.7185
    21.8931  22.5482  22.9673  23.7606  24.2331  24.3464  24.5645  25.5357
    25.7154  26.1059  26.1447  26.4868  26.8161  27.2205  27.2545  27.9129
    28.1462  28.2694  28.5247  29.1251  29.2003  29.5541  29.9135  30.1333

          k = 0.3271 0.0000-0.0000 (  7013 PWs)   bands (ev):

   -13.4743 -13.4732  -7.4591  -7.4531  -1.0000  -0.8701   0.1944   0.8084
     0.8856   0.8870   1.4046   1.5005   1.8892   2.7446   4.4185   4.4243
     4.7035   5.1147   8.5662   8.9128   9.4426  10.0261  10.9175  11.2149
    11.4413  11.7416  12.1677  13.0847  13.1286  13.6435  14.6684  15.8050
    16.1295  16.2643  16.4953  16.5418  16.8805  17.1508  17.3600  17.5398
    18.2408  18.2525  18.7702  19.5488  19.8468  21.2122  21.4532  21.7317
    21.9243  22.4984  22.8273  23.6869  23.9785  24.3101  24.4653  25.4254
    25.5904  25.9125  26.0760  26.1807  26.3457  27.0590  27.1361  27.8402
    28.1531  28.2606  28.3560  29.0384  29.3047  29.3822  29.7556  30.1676

          k = 0.3079 0.0000-0.0000 (  7021 PWs)   bands (ev):

   -13.5019 -13.5008  -7.5536  -7.5470  -0.9015  -0.7599   0.1075   0.8161
     0.9117   0.9130   1.3891   1.6702   2.0484   2.7356   4.4879   4.4934
     4.6239   5.1315   8.5469   9.0044   9.6426  10.0422  11.0020  11.3669
    11.5242  11.8878  12.3136  13.1511  13.1833  13.7040  14.7778  15.7168
    16.0655  16.1358  16.3050  16.4589  16.8745  16.8846  17.1186  17.5699
    18.1621  18.3097  18.8315  19.6602  19.7842  21.1324  21.5342  21.7107
    21.9754  22.4979  22.6642  23.5640  23.7255  24.2159  24.3448  25.2529
    25.4884  25.6420  25.8695  26.0038  26.0316  26.8586  27.0006  27.6557
    27.9826  28.3216  28.3562  28.9900  29.2345  29.3538  29.5450  30.1326

          k = 0.2887 0.0000-0.0000 (  7023 PWs)   bands (ev):

   -13.5296 -13.5284  -7.6455  -7.6383  -0.8042  -0.6547   0.0303   0.7985
     0.9383   0.9395   1.3208   1.8790   2.2581   2.7450   4.5407   4.5601
     4.5653   5.1432   8.4380   9.1192   9.8557  10.0895  11.0826  11.5253
    11.6184  12.0607  12.4752  13.2108  13.2390  13.7700  14.8952  15.6153
    15.9160  15.9652  16.0646  16.3353  16.6192  16.9173  16.9679  17.6657
    18.1108  18.4134  18.9309  19.7329  19.7629  21.0175  21.6136  21.6536
    22.0276  22.4803  22.5290  23.4066  23.4822  24.1128  24.1775  24.9375
    25.2324  25.4127  25.7527  25.8076  25.9702  26.6354  26.8253  27.4045
    27.8152  28.3462  28.4343  28.9616  29.1190  29.2827  29.3709  30.1856

          k = 0.2694 0.0000-0.0000 (  7027 PWs)   bands (ev):

   -13.5570 -13.5559  -7.7341  -7.7263  -0.7109  -0.5662  -0.0234   0.7719
     0.9651   0.9663   1.2493   2.0609   2.4973   2.7908   4.4558   4.6344
     4.6394   5.1499   8.2973   9.1891  10.0467  10.2130  11.1589  11.6831
    11.7424  12.2459  12.6474  13.2588  13.2957  13.8420  15.0037  15.4997
    15.6350  15.8151  15.8295  16.2418  16.3929  16.7594  17.0620  17.8041
    18.0845  18.5453  19.0540  19.6913  19.8503  20.8756  21.5773  21.6857
    22.0660  22.2800  22.5271  23.2580  23.2810  23.9292  24.0472  24.5655
    24.7868  25.3616  25.5397  25.8555  25.8908  26.3956  26.6233  27.1374
    27.6823  28.3512  28.4985  28.9172  29.0334  29.1497  29.2393  30.2667

          k = 0.2502 0.0000-0.0000 (  7017 PWs)   bands (ev):

   -13.5839 -13.5828  -7.8187  -7.8104  -0.6247  -0.5142  -0.0323   0.7473
     0.9919   0.9930   1.1792   2.1872   2.7538   2.8961   4.3709   4.7102
     4.7149   5.1518   8.1439   9.1951  10.2090  10.4196  11.2341  11.8357
    11.8980  12.4355  12.8247  13.2948  13.3473  13.9205  15.0474  15.3345
    15.3710  15.6363  15.6688  16.1655  16.2015  16.6399  17.1603  17.9622
    18.0799  18.6916  19.1892  19.6569  19.9185  20.7111  21.4962  21.7417
    22.0638  22.0694  22.4446  23.0643  23.2428  23.6830  23.9299  24.2137
    24.3795  25.3289  25.3290  25.7950  25.8654  26.1996  26.4080  26.8863
    27.5833  28.3110  28.5511  28.8055  28.9746  29.0492  29.1248  30.1521

          k = 0.2309 0.0000-0.0000 (  7029 PWs)   bands (ev):

   -13.6101 -13.6089  -7.8988  -7.8900  -0.5515  -0.5101   0.0172   0.7319
     1.0183   1.0194   1.1124   2.2502   3.0191   3.0651   4.2891   4.7867
     4.7910   5.1491   7.9856   9.1496  10.3740  10.6560  11.3138  11.9926
    12.0657  12.6235  13.0013  13.3180  13.3878  14.0050  14.9421  15.0382
    15.2331  15.4985  15.6279  16.0480  16.1032  16.5500  17.2643  18.0925
    18.1225  18.8380  19.3276  19.6264  19.9678  20.5312  21.4046  21.7675
    21.8573  21.9661  22.3712  22.9154  23.1731  23.4685  23.7028  23.9910
    24.0711  25.1209  25.3022  25.6909  25.6911  26.1342  26.1918  26.6921
    27.5082  28.2395  28.5906  28.6085  28.9321  28.9419  29.0926  29.8785

          k = 0.2117 0.0000-0.0000 (  7021 PWs)   bands (ev):

   -13.6351 -13.6339  -7.9739  -7.9646  -0.5537  -0.4813   0.1116   0.7307
     1.0441   1.0452   1.0497   2.2693   3.2617   3.2978   4.2158   4.8630
     4.8671   5.1422   7.8269   9.0725  10.5379  10.8985  11.4050  12.1540
    12.2291  12.8041  13.1678  13.3262  13.4117  14.0865  14.7555  14.7725
    15.0937  15.3329  15.7245  15.9318  16.0701  16.4826  17.3746  18.1172
    18.2693  18.9649  19.4651  19.5961  20.0007  20.3523  21.2658  21.6390
    21.7636  21.8095  22.3554  22.8244  22.9422  23.2122  23.4561  23.8921
    23.9536  24.9201  25.2554  25.4328  25.6005  25.9858  26.0395  26.6022
    27.4516  28.1338  28.4191  28.6114  28.7832  28.9381  29.0897  29.5877

          k = 0.1924 0.0000-0.0000 (  7021 PWs)   bands (ev):

   -13.6588 -13.6576  -8.0436  -8.0339  -0.6050  -0.4352   0.2294   0.7460
     0.9921   1.0689   1.0700   2.2649   3.4674   3.5688   4.1641   4.9382
     4.9420   5.1314   7.6712   8.9788  10.6857  11.1398  11.5134  12.3067
    12.3766  12.9744  13.3060  13.3175  13.4149  14.1285  14.5499  14.6394
    14.9613  15.1814  15.7911  15.8507  16.1197  16.4339  17.4903  18.1483
    18.3840  19.0473  19.5617  19.6026  20.0099  20.2094  21.0455  21.4381
    21.6913  21.7131  22.3294  22.6700  22.7925  22.8676  23.2584  23.7424
    24.0719  24.7404  25.1585  25.1688  25.5493  25.8021  25.8680  26.5606
    27.4220  27.9504  28.3489  28.5995  28.6087  28.9621  29.0806  29.2975

          k = 0.1732 0.0000-0.0000 (  7029 PWs)   bands (ev):

   -13.6810 -13.6798  -8.1076  -8.0975  -0.6618  -0.4037   0.3577   0.7768
     0.9409   1.0925   1.0935   2.2489   3.6239   3.8390   4.1684   5.0112
     5.0148   5.1172   7.5212   8.8782  10.8072  11.3758  11.6405  12.4203
    12.5022  13.1362  13.2912  13.3885  13.3952  14.0720  14.4583  14.6540
    14.8433  15.0494  15.7781  15.8021  16.2729  16.4022  17.6092  18.1800
    18.4430  19.0653  19.5191  19.7271  19.9920  20.1444  20.7753  21.2522
    21.6025  21.6392  22.2153  22.4426  22.5402  22.8049  23.1445  23.5620
    24.2390  24.6034  24.9185  25.0184  25.5011  25.6779  25.6800  26.4626
    27.4326  27.7485  28.3037  28.4639  28.5822  28.9531  29.0483  29.0746

          k = 0.1540 0.0000-0.0000 (  7031 PWs)   bands (ev):

   -13.7014 -13.7002  -8.1656  -8.1550  -0.7176  -0.3863   0.4897   0.8147
     0.9023   1.1145   1.1154   2.2268   3.6807   4.1030   4.2729   5.0810
     5.0844   5.1001   7.3793   8.7768  10.9000  11.6025  11.7784  12.4666
    12.5872  13.2485  13.2917  13.3539  13.4189  13.9692  14.5195  14.7434
    14.7773  14.9382  15.7332  15.7835  16.3863  16.4708  17.7281  18.2066
    18.4274  19.0112  19.4652  19.8022  19.9848  20.1519  20.5166  21.0882
    21.4871  21.5604  21.9922  22.2535  22.3187  22.8399  23.1333  23.3479
    24.3502  24.5576  24.7004  24.8655  25.3812  25.5108  25.6659  26.2763
    27.4636  27.5841  28.1167  28.5203  28.5259  28.7357  28.9812  29.1092

          k = 0.1347 0.0000-0.0000 (  7021 PWs)   bands (ev):

   -13.7199 -13.7186  -8.2173  -8.2064  -0.7695  -0.3801   0.6210   0.8215
     0.9106   1.1347   1.1356   2.2017   3.6572   4.3567   4.4528   5.0807
     5.1465   5.1497   7.2479   8.6793  10.9681  11.8124  11.9064  12.4549
    12.5960  13.1928  13.2954  13.4104  13.4805  13.9144  14.6620  14.6906
    14.8463  14.9449  15.6832  15.7919  16.3846  16.6793  17.8414  18.2233
    18.3402  18.8945  19.3989  19.8240  19.9038  20.2352  20.3631  20.9514
    21.3102  21.4906  21.7273  22.0742  22.2381  22.8783  23.0849  23.2178
    24.2877  24.5244  24.6815  24.7229  25.2379  25.3849  25.7042  26.0254
    27.4027  27.5139  27.9557  28.3577  28.5926  28.6410  28.8809  29.1863

          k = 0.1155 0.0000-0.0000 (  7007 PWs)   bands (ev):

   -13.7363 -13.7349  -8.2624  -8.2513  -0.8159  -0.3816   0.7480   0.7938
     0.9643   1.1528   1.1537   2.1751   3.6023   4.5953   4.6551   5.0600
     5.2064   5.2094   7.1290   8.5888  11.0171  11.9745  11.9930  12.4296
    12.5519  13.1294  13.2267  13.4522  13.6262  13.9507  14.5975  14.7709
    14.9209  15.1191  15.6445  15.8230  16.3947  16.8796  17.9382  18.2117
    18.2271  18.7388  19.3217  19.6199  19.9656  20.1492  20.4905  20.8453
    21.0926  21.4362  21.4520  21.9614  22.2205  22.8591  22.9055  23.2894
    24.1480  24.4574  24.6050  24.7735  25.1026  25.3357  25.7459  25.7555
    27.2547  27.4538  27.9062  28.1270  28.5292  28.6507  28.8712  29.2701

          k = 0.0962 0.0000-0.0000 (  7015 PWs)   bands (ev):

   -13.7504 -13.7490  -8.3009  -8.2895  -0.8561  -0.3877   0.7634   0.8684
     1.0256   1.1685   1.1694   2.1480   3.5394   4.8132   4.8523   5.0394
     5.2595   5.2624   7.0244   8.5079  11.0518  11.9578  12.0631  12.4554
    12.5544  13.0641  13.1553  13.4596  13.7947  14.0638  14.5471  14.7095
    15.1780  15.2540  15.6520  15.8710  16.4131  17.0474  17.9756  18.1153
    18.2170  18.5640  19.2378  19.3866  19.9092  20.1835  20.6245  20.7708
    20.9109  21.1847  21.3983  21.8750  22.2383  22.6633  22.9131  23.3447
    24.0280  24.4368  24.5189  24.7862  24.9844  25.3549  25.4975  25.8093
    27.0678  27.3830  27.9010  27.9220  28.4822  28.5032  29.0150  29.3536

          k = 0.0770 0.0000-0.0000 (  7013 PWs)   bands (ev):

   -13.7620 -13.7607  -8.3326  -8.3210  -0.8896  -0.3958   0.7378   0.9771
     1.0840   1.1817   1.1826   2.1214   3.4786   4.9936   5.0292   5.0324
     5.3049   5.3077   6.9357   8.4387  11.0758  11.8651  12.0065  12.5624
    12.6322  13.0026  13.0880  13.4468  13.9712  14.2073  14.5085  14.6601
    15.2872  15.4457  15.7563  15.9288  16.4354  17.1403  17.9230  18.1192
    18.1957  18.3857  19.1535  19.1864  19.7714  20.2941  20.5611  20.7252
    20.9081  20.9811  21.3744  21.7844  22.2324  22.5665  22.9002  23.3314
    23.9872  24.4349  24.4630  24.7469  24.8900  25.1593  25.5439  25.8599
    26.8663  27.3355  27.6984  27.9147  28.3759  28.4415  29.1664  29.4318

          k = 0.0577 0.0000-0.0000 (  7017 PWs)   bands (ev):

   -13.7713 -13.7699  -8.3574  -8.3456  -0.9158  -0.4039   0.7174   1.0703
     1.1343   1.1922   1.1930   2.0966   3.4256   4.9973   5.1692   5.1803
     5.3413   5.3440   6.8645   8.3830  11.0914  11.7567  11.9046  12.6942
    12.7307  12.9498  13.0304  13.4241  14.1417  14.3476  14.4800  14.6219
    15.2493  15.6977  15.9308  15.9882  16.4572  17.1155  17.9200  18.1031
    18.1683  18.2291  19.0487  19.0762  19.6396  20.3041  20.4993  20.7028
    20.7253  21.1015  21.3603  21.6808  22.1710  22.5957  22.8732  23.2513
    24.0224  24.4283  24.4338  24.6942  24.8242  24.9355  25.6761  25.9032
    26.6744  27.3085  27.5285  27.8402  28.3270  28.4070  29.2613  29.4520

          k = 0.0385 0.0000-0.0000 (  7003 PWs)   bands (ev):

   -13.7779 -13.7765  -8.3751  -8.3632  -0.9347  -0.4105   0.7027   1.1429
     1.1730   1.1997   1.2006   2.0757   3.3846   4.9837   5.2891   5.2936
     5.3680   5.3707   6.8120   8.3420  11.1004  11.6638  11.8136  12.7960
    12.8312  12.9094  12.9864  13.3965  14.2911  14.4603  14.4642  14.5946
    15.1876  15.9064  16.0404  16.1344  16.4747  16.9947  17.9333  18.0542
    18.1332  18.1417  18.9802  19.0139  19.5348  20.1868  20.5044  20.6315
    20.6958  21.2278  21.3526  21.5788  22.1086  22.6785  22.8428  23.1479
    24.0872  24.4051  24.4200  24.6159  24.7874  24.8011  25.8046  25.9361
    26.5061  27.2949  27.3994  27.7363  28.3311  28.3803  29.2295  29.5036

          k = 0.0192 0.0000-0.0000 (  6977 PWs)   bands (ev):

   -13.7819 -13.7805  -8.3858  -8.3738  -0.9461  -0.4149   0.6938   1.1896
     1.1973   1.2043   1.2052   2.0614   3.3586   4.9748   5.3637   5.3652
     5.3844   5.3870   6.7798   8.3169  11.1047  11.6026  11.7538  12.8526
    12.8842  12.9139  12.9590  13.3708  14.3997  14.4487  14.5415  14.5781
    15.1312  16.0403  16.0766  16.3472  16.4855  16.8317  17.8656  18.0640
    18.0958  18.1226  18.9589  18.9732  19.4679  20.0944  20.4231  20.6718
    20.6959  21.3131  21.3487  21.5043  22.0697  22.7638  22.8197  23.0549
    24.1459  24.3898  24.3950  24.5199  24.7677  24.7721  25.9111  25.9566
    26.3755  27.2884  27.3185  27.6573  28.3456  28.3634  29.1774  29.5692

          k = 0.0000 0.0000 0.0000 (  6965 PWs)   bands (ev):

   -13.7832 -13.7819  -8.3894  -8.3774  -0.9499  -0.4164   0.6909   1.2053
     1.2059   1.2060   1.2067   2.0563   3.3497   4.9716   5.3881   5.3898
     5.3906   5.3925   6.7689   8.3085  11.1059  11.5813  11.7332  12.8715
    12.8756  12.9456  12.9497  13.3595  14.4411  14.4449  14.5687  14.5726
    15.1074  16.0861  16.0897  16.4854  16.4890  16.7122  17.8305  18.0457
    18.1126  18.1156  18.9558  18.9590  19.4449  20.0610  20.3893  20.6925
    20.6968  21.3431  21.3475  21.4772  22.0567  22.8076  22.8111  23.0094
    24.1712  24.3802  24.3842  24.4803  24.7645  24.7686  25.9596  25.9635
    26.3188  27.2863  27.2908  27.6289  28.3519  28.3576  29.1575  29.5938

     Writing all to output data dir ./work/Al2SO.save/
 
     init_run     :      0.29s CPU      0.34s WALL (       1 calls)
     electrons    :    175.10s CPU    235.31s WALL (       1 calls)

     Called by init_run:
     wfcinit      :      0.00s CPU      0.00s WALL (       1 calls)
     potinit      :      0.10s CPU      0.12s WALL (       1 calls)
     hinit0       :      0.14s CPU      0.16s WALL (       1 calls)

     Called by electrons:
     c_bands      :    175.09s CPU    235.31s WALL (       1 calls)
     v_of_rho     :      0.00s CPU      0.01s WALL (       1 calls)
     newd         :      0.04s CPU      0.04s WALL (       1 calls)
     PAW_pot      :      0.10s CPU      0.11s WALL (       1 calls)

     Called by c_bands:
     init_us_2    :      0.04s CPU      0.04s WALL (      91 calls)
     init_us_2:cp :      0.04s CPU      0.04s WALL (      91 calls)
     cegterg      :    171.41s CPU    229.95s WALL (     319 calls)

     Called by *egterg:
     cdiaghg      :     32.84s CPU     33.87s WALL (    5751 calls)
     h_psi        :     88.37s CPU    143.64s WALL (    6070 calls)
     s_psi        :      5.98s CPU      6.30s WALL (    6070 calls)
     g_psi        :      0.17s CPU      0.18s WALL (    5660 calls)

     Called by h_psi:
     h_psi:calbec :      8.84s CPU     12.02s WALL (    6070 calls)
     vloc_psi     :     70.44s CPU    121.33s WALL (    6070 calls)
     add_vuspsi   :      8.40s CPU      9.55s WALL (    6070 calls)

     General routines
     calbec       :      8.83s CPU     12.01s WALL (    6070 calls)
     fft          :      0.01s CPU      0.01s WALL (      12 calls)
     fftw         :     68.22s CPU    117.74s WALL (  452012 calls)
     davcio       :      0.06s CPU      0.07s WALL (     182 calls)
 
     Parallel routines
 
     PWSCF        :   2m56.73s CPU   3m58.53s WALL

 
   This run was terminated on:  14: 9:39   7Mar2023            

=------------------------------------------------------------------------------=
   JOB DONE.
=------------------------------------------------------------------------------=
