
     Program PWSCF v.7.1 starts on  7Mar2023 at 14: 0:21 

     This program is part of the open-source Quantum ESPRESSO suite
     for quantum simulation of materials; please cite
         "P. Giannozzi et al., J. Phys.:Condens. Matter 21 395502 (2009);
         "P. Giannozzi et al., J. Phys.:Condens. Matter 29 465901 (2017);
         "P. Giannozzi et al., J. Chem. Phys. 152 154105 (2020);
          URL http://www.quantum-espresso.org", 
     in publications or presentations arising from this work. More details at
     http://www.quantum-espresso.org/quote

     Parallel version (MPI), running on    22 processors

     MPI processes distributed on     1 nodes
     97461 MiB available memory on the printing compute node when the environment starts
 
     Waiting for input...
     Reading input from standard input

     Current dimensions of program PWSCF are:
     Max number of different atomic species (ntypx) = 10
     Max number of k-points (npk) =  40000
     Max angular momentum in pseudopotentials (lmaxx) =  4
     Message from routine volume:
     axis vectors are left-handed
     file Al.pbe-n-kjpaw_psl.1.0.0.UPF: wavefunction(s)  3S 3P renormalized
     file O.pbe-n-kjpaw_psl.1.0.0.UPF: wavefunction(s)  2S 2P renormalized
     file S.pbe-n-kjpaw_psl.1.0.0.UPF: wavefunction(s)  3S 3P renormalized
     Message from routine setup:
     using ibrav=0 with symmetry is DISCOURAGED, use correct ibrav instead
 
     R & G space division:  proc/nbgrp/npool/nimage =      22
     Subspace diagonalization in iterative solution of the eigenvalue problem:
     a serial algorithm will be used

 
     Parallelization info
     --------------------
     sticks:   dense  smooth     PW     G-vecs:    dense   smooth      PW
     Min          28      28      9                 2538     2538     445
     Max          29      29     10                 2547     2547     462
     Sum         637     637    199                55957    55957    9945
 
     Using Slab Decomposition
 


     bravais-lattice index     =            0
     lattice parameter (alat)  =       6.1678  a.u.
     unit-cell volume          =     891.1655 (a.u.)^3
     number of atoms/cell      =            8
     number of atomic types    =            3
     number of electrons       =        36.00
     number of Kohn-Sham states=           72
     kinetic-energy cutoff     =      60.0000  Ry
     charge density cutoff     =     240.0000  Ry
     scf convergence threshold =      1.0E-08
     mixing beta               =       0.5000
     number of iterations used =            8  plain     mixing
     Exchange-correlation= SLA  PW   PBX  PBC
                           (   1   4   3   4   0   0   0)

     celldm(1)=   6.167802  celldm(2)=   0.000000  celldm(3)=   0.000000
     celldm(4)=   0.000000  celldm(5)=   0.000000  celldm(6)=   0.000000

     crystal axes: (cart. coord. in units of alat)
               a(1) = (   0.866080   0.499906   0.000005 )  
               a(2) = (   0.866080  -0.499906   0.000005 )  
               a(3) = (   0.000112   0.000000   4.386223 )  

     reciprocal axes: (cart. coord. in units 2 pi/alat)
               b(1) = (  0.577314  1.000187 -0.000015 )  
               b(2) = (  0.577314 -1.000187 -0.000015 )  
               b(3) = ( -0.000001  0.000000  0.227987 )  


     PseudoPot. # 1 for Al read from file:
     /home/mainadmin/research/danu/pseudo/Al.pbe-n-kjpaw_psl.1.0.0.UPF
     MD5 check sum: 502b6b27b9c6270cab5dd1084b96fa6d
     Pseudo is Projector augmented-wave + core cor, Zval =  3.0
     Generated using &quot;atomic&quot; code by A. Dal Corso  v.6.3
     Shape of augmentation charge: PSQ
     Using radial grid of 1135 points,  6 beta functions with: 
                l(1) =   0
                l(2) =   0
                l(3) =   1
                l(4) =   1
                l(5) =   2
                l(6) =   2
     Q(r) pseudized with 0 coefficients 


     PseudoPot. # 2 for O  read from file:
     /home/mainadmin/research/danu/pseudo/O.pbe-n-kjpaw_psl.1.0.0.UPF
     MD5 check sum: e99d9cef9b487d1ca56f5b95ecd0fd7a
     Pseudo is Projector augmented-wave + core cor, Zval =  6.0
     Generated using &quot;atomic&quot; code by A. Dal Corso  v.6.3
     Shape of augmentation charge: PSQ
     Using radial grid of 1095 points,  4 beta functions with: 
                l(1) =   0
                l(2) =   0
                l(3) =   1
                l(4) =   1
     Q(r) pseudized with 0 coefficients 


     PseudoPot. # 3 for S  read from file:
     /home/mainadmin/research/danu/pseudo/S.pbe-n-kjpaw_psl.1.0.0.UPF
     MD5 check sum: fb45dfebcf3e72a4e1bd4a866ec2e262
     Pseudo is Projector augmented-wave + core cor, Zval =  6.0
     Generated using &quot;atomic&quot; code by A. Dal Corso  v.6.3
     Shape of augmentation charge: PSQ
     Using radial grid of 1151 points,  6 beta functions with: 
                l(1) =   0
                l(2) =   0
                l(3) =   1
                l(4) =   1
                l(5) =   2
                l(6) =   2
     Q(r) pseudized with 0 coefficients 


     atomic species   valence    mass     pseudopotential
        Al             3.00    26.98100     Al( 1.00)
        O              6.00    15.99900     O ( 1.00)
        S              6.00    32.06500     S ( 1.00)

      2 Sym. Ops. (no inversion) found



   Cartesian axes

     site n.     atom                  positions (alat units)
         1           O   tau(   1) = (   1.1547727   0.0000000   0.0000062  )
         2           Al  tau(   2) = (   0.5773878   0.0000000   0.1313053  )
         3           Al  tau(   3) = (   0.5774100   0.0000000   0.9354158  )
         4           S   tau(   4) = (   1.1548068   0.0000000   1.3160584  )
         5           O   tau(   5) = (   0.5774427   0.0000000   2.1928653  )
         6           Al  tau(   6) = (   1.1548314   0.0000000   2.3242907  )
         7           Al  tau(   7) = (   1.1548518   0.0000000   3.1285472  )
         8           S   tau(   8) = (   0.5774763   0.0000000   3.5094383  )

     number of k points=   140

     Number of k-points >= 100: set verbosity='high' to print them.

     Dense  grid:    55957 G-vectors     FFT dimensions: (  32,  32, 135)

     Estimated max dynamical RAM per process >      62.52 MB

     Estimated total dynamical RAM >       1.34 GB

     Check: negative core charge=   -0.000003

     Initial potential from superposition of free atoms

     starting charge      35.9908, renormalised to      36.0000
     Starting wfcs are   32 randomized atomic wfcs +   40 random wfcs
     Checking if some PAW data can be deallocated... 

     total cpu time spent up to now is        8.3 secs

     Self-consistent Calculation

     iteration #  1     ecut=    60.00 Ry     beta= 0.50
     Davidson diagonalization with overlap
     ethr =  1.00E-02,  avg # of iterations =  8.1

     total cpu time spent up to now is       67.3 secs

     total energy              =    -374.10506705 Ry
     estimated scf accuracy    <       1.09983091 Ry

     iteration #  2     ecut=    60.00 Ry     beta= 0.50
     Davidson diagonalization with overlap
     ethr =  3.06E-03,  avg # of iterations =  1.3

     total cpu time spent up to now is       88.9 secs

     total energy              =    -374.32847217 Ry
     estimated scf accuracy    <       0.48901035 Ry

     iteration #  3     ecut=    60.00 Ry     beta= 0.50
     Davidson diagonalization with overlap
     ethr =  1.36E-03,  avg # of iterations =  1.7

     total cpu time spent up to now is      111.2 secs

     total energy              =    -374.44170121 Ry
     estimated scf accuracy    <       0.04501540 Ry

     iteration #  4     ecut=    60.00 Ry     beta= 0.50
     Davidson diagonalization with overlap
     ethr =  1.25E-04,  avg # of iterations =  6.1

     total cpu time spent up to now is      139.6 secs

     total energy              =    -374.45261950 Ry
     estimated scf accuracy    <       0.00725759 Ry

     iteration #  5     ecut=    60.00 Ry     beta= 0.50
     Davidson diagonalization with overlap
     ethr =  2.02E-05,  avg # of iterations =  5.9

     total cpu time spent up to now is      167.6 secs

     total energy              =    -374.45367241 Ry
     estimated scf accuracy    <       0.00197917 Ry

     iteration #  6     ecut=    60.00 Ry     beta= 0.50
     Davidson diagonalization with overlap
     ethr =  5.50E-06,  avg # of iterations =  4.6

     total cpu time spent up to now is      194.4 secs

     total energy              =    -374.45390017 Ry
     estimated scf accuracy    <       0.00164750 Ry

     iteration #  7     ecut=    60.00 Ry     beta= 0.50
     Davidson diagonalization with overlap
     ethr =  4.58E-06,  avg # of iterations =  2.3

     total cpu time spent up to now is      218.1 secs

     total energy              =    -374.45417751 Ry
     estimated scf accuracy    <       0.00022475 Ry

     iteration #  8     ecut=    60.00 Ry     beta= 0.50
     Davidson diagonalization with overlap
     ethr =  6.24E-07,  avg # of iterations =  1.9

     total cpu time spent up to now is      240.6 secs

     total energy              =    -374.45420807 Ry
     estimated scf accuracy    <       0.00000379 Ry

     iteration #  9     ecut=    60.00 Ry     beta= 0.50
     Davidson diagonalization with overlap
     ethr =  1.05E-08,  avg # of iterations =  2.1

     total cpu time spent up to now is      264.4 secs

     total energy              =    -374.45420881 Ry
     estimated scf accuracy    <       0.00000018 Ry

     iteration # 10     ecut=    60.00 Ry     beta= 0.50
     Davidson diagonalization with overlap
     ethr =  4.99E-10,  avg # of iterations =  4.1

     total cpu time spent up to now is      291.1 secs

     total energy              =    -374.45420890 Ry
     estimated scf accuracy    <       0.00000006 Ry

     iteration # 11     ecut=    60.00 Ry     beta= 0.50
     Davidson diagonalization with overlap
     ethr =  1.60E-10,  avg # of iterations =  1.3

     total cpu time spent up to now is      312.8 secs

     End of self-consistent calculation

     Number of k-points >= 100: set verbosity='high' to print the bands.

     highest occupied, lowest unoccupied level (ev):     5.3930    6.7689

!    total energy              =    -374.45420892 Ry
     total all-electron energy =     -3840.921351 Ry
     estimated scf accuracy    <          9.0E-09 Ry

     The total energy is the sum of the following terms:
     one-electron contribution =     -27.78423362 Ry
     hartree contribution      =      34.01918298 Ry
     xc contribution           =     -35.69877061 Ry
     ewald contribution        =     -94.83828533 Ry
     one-center paw contrib.   =    -250.15210234 Ry

     convergence has been achieved in  11 iterations

     Writing all to output data dir ./work/Al2SO.save/
 
     init_run     :      5.35s CPU      8.10s WALL (       1 calls)
     electrons    :    217.24s CPU    304.53s WALL (       1 calls)

     Called by init_run:
     wfcinit      :      5.01s CPU      7.73s WALL (       1 calls)
     potinit      :      0.16s CPU      0.16s WALL (       1 calls)
     hinit0       :      0.14s CPU      0.15s WALL (       1 calls)

     Called by electrons:
     c_bands      :    193.03s CPU    266.60s WALL (      11 calls)
     sum_band     :     22.74s CPU     36.28s WALL (      11 calls)
     v_of_rho     :      0.03s CPU      0.06s WALL (      12 calls)
     newd         :      0.45s CPU      0.46s WALL (      12 calls)
     PAW_pot      :      1.10s CPU      1.24s WALL (      12 calls)
     mix_rho      :      0.02s CPU      0.02s WALL (      11 calls)

     Called by c_bands:
     init_us_2    :      1.94s CPU      2.10s WALL (    3220 calls)
     init_us_2:cp :      1.92s CPU      2.09s WALL (    3220 calls)
     cegterg      :    185.74s CPU    259.19s WALL (    1540 calls)

     Called by *egterg:
     cdiaghg      :     30.42s CPU     31.55s WALL (    7045 calls)
     h_psi        :    108.82s CPU    179.55s WALL (    7185 calls)
     s_psi        :      6.49s CPU      6.86s WALL (    7185 calls)
     g_psi        :      0.15s CPU      0.16s WALL (    5505 calls)

     Called by h_psi:
     h_psi:calbec :     10.81s CPU     14.58s WALL (    7185 calls)
     vloc_psi     :     87.94s CPU    153.46s WALL (    7185 calls)
     add_vuspsi   :      8.96s CPU     10.33s WALL (    7185 calls)

     General routines
     calbec       :     13.78s CPU     18.64s WALL (    8725 calls)
     fft          :      0.03s CPU      0.06s WALL (     132 calls)
     ffts         :      0.00s CPU      0.01s WALL (      11 calls)
     fftw         :    102.04s CPU    177.45s WALL (  669858 calls)
 
     Parallel routines
 
     PWSCF        :   3m44.03s CPU   5m16.39s WALL

 
   This run was terminated on:  14: 5:37   7Mar2023            

=------------------------------------------------------------------------------=
   JOB DONE.
=------------------------------------------------------------------------------=
