
     Program PWSCF v.7.1 starts on 22Jun2023 at 13: 8:41 

     This program is part of the open-source Quantum ESPRESSO suite
     for quantum simulation of materials; please cite
         "P. Giannozzi et al., J. Phys.:Condens. Matter 21 395502 (2009);
         "P. Giannozzi et al., J. Phys.:Condens. Matter 29 465901 (2017);
         "P. Giannozzi et al., J. Chem. Phys. 152 154105 (2020);
          URL http://www.quantum-espresso.org", 
     in publications or presentations arising from this work. More details at
     http://www.quantum-espresso.org/quote

     Parallel version (MPI), running on    10 processors

     MPI processes distributed on     1 nodes
     43330 MiB available memory on the printing compute node when the environment starts
 
     Waiting for input...
     Reading input from standard input

     Current dimensions of program PWSCF are:
     Max number of different atomic species (ntypx) = 10
     Max number of k-points (npk) =  40000
     Max angular momentum in pseudopotentials (lmaxx) =  4
     Message from routine volume:
     axis vectors are left-handed

     Atomic positions and unit cell read from directory:
     ./work/Al2O2.save/
     Atomic positions from file used, from input discarded
 
     Message from routine volume:
     axis vectors are left-handed
     file Al.pbe-n-kjpaw_psl.1.0.0.UPF: wavefunction(s)  3S 3P renormalized
     file O.pbe-n-kjpaw_psl.1.0.0.UPF: wavefunction(s)  2S 2P renormalized
 
     R & G space division:  proc/nbgrp/npool/nimage =      10
     Subspace diagonalization in iterative solution of the eigenvalue problem:
     a serial algorithm will be used

 
     Parallelization info
     --------------------
     sticks:   dense  smooth     PW     G-vecs:    dense   smooth      PW
     Min          51      51     16                 8077     8077    1486
     Max          52      52     17                 8112     8112    1523
     Sum         511     511    163                80843    80843   14991
 
     Using Slab Decomposition
 


     bravais-lattice index     =            0
     lattice parameter (alat)  =       5.6114  a.u.
     unit-cell volume          =    1288.9767 (a.u.)^3
     number of atoms/cell      =            4
     number of atomic types    =            2
     number of electrons       =        18.00
     number of Kohn-Sham states=           40
     kinetic-energy cutoff     =      60.0000  Ry
     charge density cutoff     =     240.0000  Ry
     Exchange-correlation= SLA  PW   PBX  PBC
                           (   1   4   3   4   0   0   0)

     celldm(1)=   5.611386  celldm(2)=   0.000000  celldm(3)=   0.000000
     celldm(4)=   0.000000  celldm(5)=   0.000000  celldm(6)=   0.000000

     crystal axes: (cart. coord. in units of alat)
               a(1) = (   0.865790   0.500407   0.000000 )  
               a(2) = (   0.865790  -0.500407   0.000000 )  
               a(3) = (   0.000000   0.000000   8.419160 )  

     reciprocal axes: (cart. coord. in units 2 pi/alat)
               b(1) = (  0.577507  0.999187  0.000000 )  
               b(2) = (  0.577507 -0.999187  0.000000 )  
               b(3) = (  0.000000  0.000000  0.118777 )  


     PseudoPot. # 1 for Al read from file:
     /home/mainadmin/research/danu/pseudo/Al.pbe-n-kjpaw_psl.1.0.0.UPF
     MD5 check sum: 502b6b27b9c6270cab5dd1084b96fa6d
     Pseudo is Projector augmented-wave + core cor, Zval =  3.0
     Generated using &quot;atomic&quot; code by A. Dal Corso  v.6.3
     Shape of augmentation charge: PSQ
     Using radial grid of 1135 points,  6 beta functions with: 
                l(1) =   0
                l(2) =   0
                l(3) =   1
                l(4) =   1
                l(5) =   2
                l(6) =   2
     Q(r) pseudized with 0 coefficients 


     PseudoPot. # 2 for O  read from file:
     /home/mainadmin/research/danu/pseudo/O.pbe-n-kjpaw_psl.1.0.0.UPF
     MD5 check sum: e99d9cef9b487d1ca56f5b95ecd0fd7a
     Pseudo is Projector augmented-wave + core cor, Zval =  6.0
     Generated using &quot;atomic&quot; code by A. Dal Corso  v.6.3
     Shape of augmentation charge: PSQ
     Using radial grid of 1095 points,  4 beta functions with: 
                l(1) =   0
                l(2) =   0
                l(3) =   1
                l(4) =   1
     Q(r) pseudized with 0 coefficients 


     atomic species   valence    mass     pseudopotential
        Al             3.00    26.98100     Al( 1.00)
        O              6.00    15.99900     O ( 1.00)

     No symmetry found


                                    s                        frac. trans.

      isym =  1     identity                                     

 cryst.   s( 1) = (     1          0          0      )
                  (     0          1          0      )
                  (     0          0          1      )

 cart.    s( 1) = (  1.0000000  0.0000000  0.0000000 )
                  (  0.0000000  1.0000000  0.0000000 )
                  (  0.0000000  0.0000000  1.0000000 )


   Cartesian axes

     site n.     atom                  positions (alat units)
         1           O   tau(   1) = (   1.1545548   0.0000000   3.5560643  )
         2           Al  tau(   2) = (   0.5770825   0.0000000   3.7791201  )
         3           Al  tau(   3) = (   0.5770294   0.0000000   4.6620761  )
         4           O   tau(   4) = (   1.1544952   0.0000000   4.8850991  )

   Crystallographic axes

     site n.     atom                  positions (cryst. coord.)
         1           O   tau(   1) = (  0.6667634  0.6667634  0.4223776  )
         2           Al  tau(   2) = (  0.3332692  0.3332692  0.4488714  )
         3           Al  tau(   3) = (  0.3332385  0.3332385  0.5537460  )
         4           O   tau(   4) = (  0.6667290  0.6667290  0.5802360  )

     number of k points=  1354 (tetrahedron method)
                       cart. coord. in units 2pi/alat
        k(    1) = (   0.0000000   0.0000000   0.0000000), wk =   0.0007396
        k(    2) = (   0.0111059  -0.0192151   0.0000000), wk =   0.0014793
        k(    3) = (   0.0222118  -0.0384303   0.0000000), wk =   0.0014793
        k(    4) = (   0.0333177  -0.0576454   0.0000000), wk =   0.0014793
        k(    5) = (   0.0444236  -0.0768606   0.0000000), wk =   0.0014793
        k(    6) = (   0.0555295  -0.0960757   0.0000000), wk =   0.0014793
        k(    7) = (   0.0666354  -0.1152908   0.0000000), wk =   0.0014793
        k(    8) = (   0.0777413  -0.1345060   0.0000000), wk =   0.0014793
        k(    9) = (   0.0888472  -0.1537211   0.0000000), wk =   0.0014793
        k(   10) = (   0.0999531  -0.1729363   0.0000000), wk =   0.0014793
        k(   11) = (   0.1110590  -0.1921514   0.0000000), wk =   0.0014793
        k(   12) = (   0.1221649  -0.2113665   0.0000000), wk =   0.0014793
        k(   13) = (   0.1332708  -0.2305817   0.0000000), wk =   0.0014793
        k(   14) = (   0.1443767  -0.2497968   0.0000000), wk =   0.0014793
        k(   15) = (   0.1554826  -0.2690119   0.0000000), wk =   0.0014793
        k(   16) = (   0.1665885  -0.2882271   0.0000000), wk =   0.0014793
        k(   17) = (   0.1776944  -0.3074422   0.0000000), wk =   0.0014793
        k(   18) = (   0.1888003  -0.3266574   0.0000000), wk =   0.0014793
        k(   19) = (   0.1999062  -0.3458725   0.0000000), wk =   0.0014793
        k(   20) = (   0.2110122  -0.3650876   0.0000000), wk =   0.0014793
        k(   21) = (   0.2221181  -0.3843028   0.0000000), wk =   0.0014793
        k(   22) = (   0.2332240  -0.4035179   0.0000000), wk =   0.0014793
        k(   23) = (   0.2443299  -0.4227331   0.0000000), wk =   0.0014793
        k(   24) = (   0.2554358  -0.4419482   0.0000000), wk =   0.0014793
        k(   25) = (   0.2665417  -0.4611633   0.0000000), wk =   0.0014793
        k(   26) = (   0.2776476  -0.4803785   0.0000000), wk =   0.0014793
        k(   27) = (  -0.2887535   0.4995936   0.0000000), wk =   0.0007396
        k(   28) = (   0.0111059   0.0192151   0.0000000), wk =   0.0014793
        k(   29) = (   0.0222118   0.0000000   0.0000000), wk =   0.0014793
        k(   30) = (   0.0333177  -0.0192151   0.0000000), wk =   0.0014793
        k(   31) = (   0.0444236  -0.0384303   0.0000000), wk =   0.0014793
        k(   32) = (   0.0555295  -0.0576454   0.0000000), wk =   0.0014793
        k(   33) = (   0.0666354  -0.0768606   0.0000000), wk =   0.0014793
        k(   34) = (   0.0777413  -0.0960757   0.0000000), wk =   0.0014793
        k(   35) = (   0.0888472  -0.1152908   0.0000000), wk =   0.0014793
        k(   36) = (   0.0999531  -0.1345060   0.0000000), wk =   0.0014793
        k(   37) = (   0.1110590  -0.1537211   0.0000000), wk =   0.0014793
        k(   38) = (   0.1221649  -0.1729363   0.0000000), wk =   0.0014793
        k(   39) = (   0.1332708  -0.1921514   0.0000000), wk =   0.0014793
        k(   40) = (   0.1443767  -0.2113665   0.0000000), wk =   0.0014793
        k(   41) = (   0.1554826  -0.2305817   0.0000000), wk =   0.0014793
        k(   42) = (   0.1665885  -0.2497968   0.0000000), wk =   0.0014793
        k(   43) = (   0.1776944  -0.2690119   0.0000000), wk =   0.0014793
        k(   44) = (   0.1888003  -0.2882271   0.0000000), wk =   0.0014793
        k(   45) = (   0.1999062  -0.3074422   0.0000000), wk =   0.0014793
        k(   46) = (   0.2110122  -0.3266574   0.0000000), wk =   0.0014793
        k(   47) = (   0.2221181  -0.3458725   0.0000000), wk =   0.0014793
        k(   48) = (   0.2332240  -0.3650876   0.0000000), wk =   0.0014793
        k(   49) = (   0.2443299  -0.3843028   0.0000000), wk =   0.0014793
        k(   50) = (   0.2554358  -0.4035179   0.0000000), wk =   0.0014793
        k(   51) = (   0.2665417  -0.4227331   0.0000000), wk =   0.0014793
        k(   52) = (   0.2776476  -0.4419482   0.0000000), wk =   0.0014793
        k(   53) = (   0.2887535  -0.4611633   0.0000000), wk =   0.0014793
        k(   54) = (  -0.2776476   0.5188088   0.0000000), wk =   0.0014793
        k(   55) = (  -0.2665417   0.4995936   0.0000000), wk =   0.0014793
        k(   56) = (  -0.2554358   0.4803785   0.0000000), wk =   0.0014793
        k(   57) = (  -0.2443299   0.4611633   0.0000000), wk =   0.0014793
        k(   58) = (  -0.2332240   0.4419482   0.0000000), wk =   0.0014793
        k(   59) = (  -0.2221181   0.4227331   0.0000000), wk =   0.0014793
        k(   60) = (  -0.2110122   0.4035179   0.0000000), wk =   0.0014793
        k(   61) = (  -0.1999062   0.3843028   0.0000000), wk =   0.0014793
        k(   62) = (  -0.1888003   0.3650876   0.0000000), wk =   0.0014793
        k(   63) = (  -0.1776944   0.3458725   0.0000000), wk =   0.0014793
        k(   64) = (  -0.1665885   0.3266574   0.0000000), wk =   0.0014793
        k(   65) = (  -0.1554826   0.3074422   0.0000000), wk =   0.0014793
        k(   66) = (  -0.1443767   0.2882271   0.0000000), wk =   0.0014793
        k(   67) = (  -0.1332708   0.2690119   0.0000000), wk =   0.0014793
        k(   68) = (  -0.1221649   0.2497968   0.0000000), wk =   0.0014793
        k(   69) = (  -0.1110590   0.2305817   0.0000000), wk =   0.0014793
        k(   70) = (  -0.0999531   0.2113665   0.0000000), wk =   0.0014793
        k(   71) = (  -0.0888472   0.1921514   0.0000000), wk =   0.0014793
        k(   72) = (  -0.0777413   0.1729363   0.0000000), wk =   0.0014793
        k(   73) = (  -0.0666354   0.1537211   0.0000000), wk =   0.0014793
        k(   74) = (  -0.0555295   0.1345060   0.0000000), wk =   0.0014793
        k(   75) = (  -0.0444236   0.1152908   0.0000000), wk =   0.0014793
        k(   76) = (  -0.0333177   0.0960757   0.0000000), wk =   0.0014793
        k(   77) = (  -0.0222118   0.0768606   0.0000000), wk =   0.0014793
        k(   78) = (  -0.0111059   0.0576454   0.0000000), wk =   0.0014793
        k(   79) = (  -0.0000000   0.0384303   0.0000000), wk =   0.0014793
        k(   80) = (   0.0222118   0.0384303   0.0000000), wk =   0.0014793
        k(   81) = (   0.0333177   0.0192151   0.0000000), wk =   0.0014793
        k(   82) = (   0.0444236   0.0000000   0.0000000), wk =   0.0014793
        k(   83) = (   0.0555295  -0.0192151   0.0000000), wk =   0.0014793
        k(   84) = (   0.0666354  -0.0384303   0.0000000), wk =   0.0014793
        k(   85) = (   0.0777413  -0.0576454   0.0000000), wk =   0.0014793
        k(   86) = (   0.0888472  -0.0768606   0.0000000), wk =   0.0014793
        k(   87) = (   0.0999531  -0.0960757   0.0000000), wk =   0.0014793
        k(   88) = (   0.1110590  -0.1152908   0.0000000), wk =   0.0014793
        k(   89) = (   0.1221649  -0.1345060   0.0000000), wk =   0.0014793
        k(   90) = (   0.1332708  -0.1537211   0.0000000), wk =   0.0014793
        k(   91) = (   0.1443767  -0.1729363   0.0000000), wk =   0.0014793
        k(   92) = (   0.1554826  -0.1921514   0.0000000), wk =   0.0014793
        k(   93) = (   0.1665885  -0.2113665   0.0000000), wk =   0.0014793
        k(   94) = (   0.1776944  -0.2305817   0.0000000), wk =   0.0014793
        k(   95) = (   0.1888003  -0.2497968   0.0000000), wk =   0.0014793
        k(   96) = (   0.1999062  -0.2690119   0.0000000), wk =   0.0014793
        k(   97) = (   0.2110122  -0.2882271   0.0000000), wk =   0.0014793
        k(   98) = (   0.2221181  -0.3074422   0.0000000), wk =   0.0014793
        k(   99) = (   0.2332240  -0.3266574   0.0000000), wk =   0.0014793
        k(  100) = (   0.2443299  -0.3458725   0.0000000), wk =   0.0014793
        k(  101) = (   0.2554358  -0.3650876   0.0000000), wk =   0.0014793
        k(  102) = (   0.2665417  -0.3843028   0.0000000), wk =   0.0014793
        k(  103) = (   0.2776476  -0.4035179   0.0000000), wk =   0.0014793
        k(  104) = (   0.2887535  -0.4227331   0.0000000), wk =   0.0014793
        k(  105) = (   0.2998594  -0.4419482   0.0000000), wk =   0.0014793
        k(  106) = (  -0.2665417   0.5380239   0.0000000), wk =   0.0014793
        k(  107) = (  -0.2554358   0.5188088   0.0000000), wk =   0.0014793
        k(  108) = (  -0.2443299   0.4995936   0.0000000), wk =   0.0014793
        k(  109) = (  -0.2332240   0.4803785   0.0000000), wk =   0.0014793
        k(  110) = (  -0.2221181   0.4611633   0.0000000), wk =   0.0014793
        k(  111) = (  -0.2110122   0.4419482   0.0000000), wk =   0.0014793
        k(  112) = (  -0.1999062   0.4227331   0.0000000), wk =   0.0014793
        k(  113) = (  -0.1888003   0.4035179   0.0000000), wk =   0.0014793
        k(  114) = (  -0.1776944   0.3843028   0.0000000), wk =   0.0014793
        k(  115) = (  -0.1665885   0.3650876   0.0000000), wk =   0.0014793
        k(  116) = (  -0.1554826   0.3458725   0.0000000), wk =   0.0014793
        k(  117) = (  -0.1443767   0.3266574   0.0000000), wk =   0.0014793
        k(  118) = (  -0.1332708   0.3074422   0.0000000), wk =   0.0014793
        k(  119) = (  -0.1221649   0.2882271   0.0000000), wk =   0.0014793
        k(  120) = (  -0.1110590   0.2690119   0.0000000), wk =   0.0014793
        k(  121) = (  -0.0999531   0.2497968   0.0000000), wk =   0.0014793
        k(  122) = (  -0.0888472   0.2305817   0.0000000), wk =   0.0014793
        k(  123) = (  -0.0777413   0.2113665   0.0000000), wk =   0.0014793
        k(  124) = (  -0.0666354   0.1921514   0.0000000), wk =   0.0014793
        k(  125) = (  -0.0555295   0.1729363   0.0000000), wk =   0.0014793
        k(  126) = (  -0.0444236   0.1537211   0.0000000), wk =   0.0014793
        k(  127) = (  -0.0333177   0.1345060   0.0000000), wk =   0.0014793
        k(  128) = (  -0.0222118   0.1152908   0.0000000), wk =   0.0014793
        k(  129) = (  -0.0111059   0.0960757   0.0000000), wk =   0.0014793
        k(  130) = (   0.0000000   0.0768606   0.0000000), wk =   0.0014793
        k(  131) = (   0.0111059   0.0576454   0.0000000), wk =   0.0014793
        k(  132) = (   0.0333177   0.0576454   0.0000000), wk =   0.0014793
        k(  133) = (   0.0444236   0.0384303   0.0000000), wk =   0.0014793
        k(  134) = (   0.0555295   0.0192151   0.0000000), wk =   0.0014793
        k(  135) = (   0.0666354   0.0000000   0.0000000), wk =   0.0014793
        k(  136) = (   0.0777413  -0.0192151   0.0000000), wk =   0.0014793
        k(  137) = (   0.0888472  -0.0384303   0.0000000), wk =   0.0014793
        k(  138) = (   0.0999531  -0.0576454   0.0000000), wk =   0.0014793
        k(  139) = (   0.1110590  -0.0768606   0.0000000), wk =   0.0014793
        k(  140) = (   0.1221649  -0.0960757   0.0000000), wk =   0.0014793
        k(  141) = (   0.1332708  -0.1152908   0.0000000), wk =   0.0014793
        k(  142) = (   0.1443767  -0.1345060   0.0000000), wk =   0.0014793
        k(  143) = (   0.1554826  -0.1537211   0.0000000), wk =   0.0014793
        k(  144) = (   0.1665885  -0.1729363   0.0000000), wk =   0.0014793
        k(  145) = (   0.1776944  -0.1921514   0.0000000), wk =   0.0014793
        k(  146) = (   0.1888003  -0.2113665   0.0000000), wk =   0.0014793
        k(  147) = (   0.1999062  -0.2305817   0.0000000), wk =   0.0014793
        k(  148) = (   0.2110122  -0.2497968   0.0000000), wk =   0.0014793
        k(  149) = (   0.2221181  -0.2690119   0.0000000), wk =   0.0014793
        k(  150) = (   0.2332240  -0.2882271   0.0000000), wk =   0.0014793
        k(  151) = (   0.2443299  -0.3074422   0.0000000), wk =   0.0014793
        k(  152) = (   0.2554358  -0.3266574   0.0000000), wk =   0.0014793
        k(  153) = (   0.2665417  -0.3458725   0.0000000), wk =   0.0014793
        k(  154) = (   0.2776476  -0.3650876   0.0000000), wk =   0.0014793
        k(  155) = (   0.2887535  -0.3843028   0.0000000), wk =   0.0014793
        k(  156) = (   0.2998594  -0.4035179   0.0000000), wk =   0.0014793
        k(  157) = (   0.3109653  -0.4227331   0.0000000), wk =   0.0014793
        k(  158) = (  -0.2554358   0.5572390   0.0000000), wk =   0.0014793
        k(  159) = (  -0.2443299   0.5380239   0.0000000), wk =   0.0014793
        k(  160) = (  -0.2332240   0.5188088   0.0000000), wk =   0.0014793
        k(  161) = (  -0.2221181   0.4995936   0.0000000), wk =   0.0014793
        k(  162) = (  -0.2110122   0.4803785   0.0000000), wk =   0.0014793
        k(  163) = (  -0.1999062   0.4611633   0.0000000), wk =   0.0014793
        k(  164) = (  -0.1888003   0.4419482   0.0000000), wk =   0.0014793
        k(  165) = (  -0.1776944   0.4227331   0.0000000), wk =   0.0014793
        k(  166) = (  -0.1665885   0.4035179   0.0000000), wk =   0.0014793
        k(  167) = (  -0.1554826   0.3843028   0.0000000), wk =   0.0014793
        k(  168) = (  -0.1443767   0.3650876   0.0000000), wk =   0.0014793
        k(  169) = (  -0.1332708   0.3458725   0.0000000), wk =   0.0014793
        k(  170) = (  -0.1221649   0.3266574   0.0000000), wk =   0.0014793
        k(  171) = (  -0.1110590   0.3074422   0.0000000), wk =   0.0014793
        k(  172) = (  -0.0999531   0.2882271   0.0000000), wk =   0.0014793
        k(  173) = (  -0.0888472   0.2690119   0.0000000), wk =   0.0014793
        k(  174) = (  -0.0777413   0.2497968   0.0000000), wk =   0.0014793
        k(  175) = (  -0.0666354   0.2305817   0.0000000), wk =   0.0014793
        k(  176) = (  -0.0555295   0.2113665   0.0000000), wk =   0.0014793
        k(  177) = (  -0.0444236   0.1921514   0.0000000), wk =   0.0014793
        k(  178) = (  -0.0333177   0.1729363   0.0000000), wk =   0.0014793
        k(  179) = (  -0.0222118   0.1537211   0.0000000), wk =   0.0014793
        k(  180) = (  -0.0111059   0.1345060   0.0000000), wk =   0.0014793
        k(  181) = (  -0.0000000   0.1152908   0.0000000), wk =   0.0014793
        k(  182) = (   0.0111059   0.0960757   0.0000000), wk =   0.0014793
        k(  183) = (   0.0222118   0.0768606   0.0000000), wk =   0.0014793
        k(  184) = (   0.0444236   0.0768606   0.0000000), wk =   0.0014793
        k(  185) = (   0.0555295   0.0576454   0.0000000), wk =   0.0014793
        k(  186) = (   0.0666354   0.0384303   0.0000000), wk =   0.0014793
        k(  187) = (   0.0777413   0.0192151   0.0000000), wk =   0.0014793
        k(  188) = (   0.0888472   0.0000000   0.0000000), wk =   0.0014793
        k(  189) = (   0.0999531  -0.0192151   0.0000000), wk =   0.0014793
        k(  190) = (   0.1110590  -0.0384303   0.0000000), wk =   0.0014793
        k(  191) = (   0.1221649  -0.0576454   0.0000000), wk =   0.0014793
        k(  192) = (   0.1332708  -0.0768606   0.0000000), wk =   0.0014793
        k(  193) = (   0.1443767  -0.0960757   0.0000000), wk =   0.0014793
        k(  194) = (   0.1554826  -0.1152908   0.0000000), wk =   0.0014793
        k(  195) = (   0.1665885  -0.1345060   0.0000000), wk =   0.0014793
        k(  196) = (   0.1776944  -0.1537211   0.0000000), wk =   0.0014793
        k(  197) = (   0.1888003  -0.1729363   0.0000000), wk =   0.0014793
        k(  198) = (   0.1999062  -0.1921514   0.0000000), wk =   0.0014793
        k(  199) = (   0.2110122  -0.2113665   0.0000000), wk =   0.0014793
        k(  200) = (   0.2221181  -0.2305817   0.0000000), wk =   0.0014793
        k(  201) = (   0.2332240  -0.2497968   0.0000000), wk =   0.0014793
        k(  202) = (   0.2443299  -0.2690119   0.0000000), wk =   0.0014793
        k(  203) = (   0.2554358  -0.2882271   0.0000000), wk =   0.0014793
        k(  204) = (   0.2665417  -0.3074422   0.0000000), wk =   0.0014793
        k(  205) = (   0.2776476  -0.3266574   0.0000000), wk =   0.0014793
        k(  206) = (   0.2887535  -0.3458725   0.0000000), wk =   0.0014793
        k(  207) = (   0.2998594  -0.3650876   0.0000000), wk =   0.0014793
        k(  208) = (   0.3109653  -0.3843028   0.0000000), wk =   0.0014793
        k(  209) = (   0.3220712  -0.4035179   0.0000000), wk =   0.0014793
        k(  210) = (  -0.2443299   0.5764542   0.0000000), wk =   0.0014793
        k(  211) = (  -0.2332240   0.5572390   0.0000000), wk =   0.0014793
        k(  212) = (  -0.2221181   0.5380239   0.0000000), wk =   0.0014793
        k(  213) = (  -0.2110122   0.5188088   0.0000000), wk =   0.0014793
        k(  214) = (  -0.1999062   0.4995936   0.0000000), wk =   0.0014793
        k(  215) = (  -0.1888003   0.4803785   0.0000000), wk =   0.0014793
        k(  216) = (  -0.1776944   0.4611633   0.0000000), wk =   0.0014793
        k(  217) = (  -0.1665885   0.4419482   0.0000000), wk =   0.0014793
        k(  218) = (  -0.1554826   0.4227331   0.0000000), wk =   0.0014793
        k(  219) = (  -0.1443767   0.4035179   0.0000000), wk =   0.0014793
        k(  220) = (  -0.1332708   0.3843028   0.0000000), wk =   0.0014793
        k(  221) = (  -0.1221649   0.3650876   0.0000000), wk =   0.0014793
        k(  222) = (  -0.1110590   0.3458725   0.0000000), wk =   0.0014793
        k(  223) = (  -0.0999531   0.3266574   0.0000000), wk =   0.0014793
        k(  224) = (  -0.0888472   0.3074422   0.0000000), wk =   0.0014793
        k(  225) = (  -0.0777413   0.2882271   0.0000000), wk =   0.0014793
        k(  226) = (  -0.0666354   0.2690119   0.0000000), wk =   0.0014793
        k(  227) = (  -0.0555295   0.2497968   0.0000000), wk =   0.0014793
        k(  228) = (  -0.0444236   0.2305817   0.0000000), wk =   0.0014793
        k(  229) = (  -0.0333177   0.2113665   0.0000000), wk =   0.0014793
        k(  230) = (  -0.0222118   0.1921514   0.0000000), wk =   0.0014793
        k(  231) = (  -0.0111059   0.1729363   0.0000000), wk =   0.0014793
        k(  232) = (   0.0000000   0.1537211   0.0000000), wk =   0.0014793
        k(  233) = (   0.0111059   0.1345060   0.0000000), wk =   0.0014793
        k(  234) = (   0.0222118   0.1152908   0.0000000), wk =   0.0014793
        k(  235) = (   0.0333177   0.0960757   0.0000000), wk =   0.0014793
        k(  236) = (   0.0555295   0.0960757   0.0000000), wk =   0.0014793
        k(  237) = (   0.0666354   0.0768606   0.0000000), wk =   0.0014793
        k(  238) = (   0.0777413   0.0576454   0.0000000), wk =   0.0014793
        k(  239) = (   0.0888472   0.0384303   0.0000000), wk =   0.0014793
        k(  240) = (   0.0999531   0.0192151   0.0000000), wk =   0.0014793
        k(  241) = (   0.1110590   0.0000000   0.0000000), wk =   0.0014793
        k(  242) = (   0.1221649  -0.0192151   0.0000000), wk =   0.0014793
        k(  243) = (   0.1332708  -0.0384303   0.0000000), wk =   0.0014793
        k(  244) = (   0.1443767  -0.0576454   0.0000000), wk =   0.0014793
        k(  245) = (   0.1554826  -0.0768606   0.0000000), wk =   0.0014793
        k(  246) = (   0.1665885  -0.0960757   0.0000000), wk =   0.0014793
        k(  247) = (   0.1776944  -0.1152908   0.0000000), wk =   0.0014793
        k(  248) = (   0.1888003  -0.1345060   0.0000000), wk =   0.0014793
        k(  249) = (   0.1999062  -0.1537211   0.0000000), wk =   0.0014793
        k(  250) = (   0.2110122  -0.1729363   0.0000000), wk =   0.0014793
        k(  251) = (   0.2221181  -0.1921514   0.0000000), wk =   0.0014793
        k(  252) = (   0.2332240  -0.2113665   0.0000000), wk =   0.0014793
        k(  253) = (   0.2443299  -0.2305817   0.0000000), wk =   0.0014793
        k(  254) = (   0.2554358  -0.2497968   0.0000000), wk =   0.0014793
        k(  255) = (   0.2665417  -0.2690119   0.0000000), wk =   0.0014793
        k(  256) = (   0.2776476  -0.2882271   0.0000000), wk =   0.0014793
        k(  257) = (   0.2887535  -0.3074422   0.0000000), wk =   0.0014793
        k(  258) = (   0.2998594  -0.3266574   0.0000000), wk =   0.0014793
        k(  259) = (   0.3109653  -0.3458725   0.0000000), wk =   0.0014793
        k(  260) = (   0.3220712  -0.3650876   0.0000000), wk =   0.0014793
        k(  261) = (   0.3331771  -0.3843028   0.0000000), wk =   0.0014793
        k(  262) = (  -0.2332240   0.5956693   0.0000000), wk =   0.0014793
        k(  263) = (  -0.2221181   0.5764542   0.0000000), wk =   0.0014793
        k(  264) = (  -0.2110122   0.5572390   0.0000000), wk =   0.0014793
        k(  265) = (  -0.1999062   0.5380239   0.0000000), wk =   0.0014793
        k(  266) = (  -0.1888003   0.5188088   0.0000000), wk =   0.0014793
        k(  267) = (  -0.1776944   0.4995936   0.0000000), wk =   0.0014793
        k(  268) = (  -0.1665885   0.4803785   0.0000000), wk =   0.0014793
        k(  269) = (  -0.1554826   0.4611633   0.0000000), wk =   0.0014793
        k(  270) = (  -0.1443767   0.4419482   0.0000000), wk =   0.0014793
        k(  271) = (  -0.1332708   0.4227331   0.0000000), wk =   0.0014793
        k(  272) = (  -0.1221649   0.4035179   0.0000000), wk =   0.0014793
        k(  273) = (  -0.1110590   0.3843028   0.0000000), wk =   0.0014793
        k(  274) = (  -0.0999531   0.3650876   0.0000000), wk =   0.0014793
        k(  275) = (  -0.0888472   0.3458725   0.0000000), wk =   0.0014793
        k(  276) = (  -0.0777413   0.3266574   0.0000000), wk =   0.0014793
        k(  277) = (  -0.0666354   0.3074422   0.0000000), wk =   0.0014793
        k(  278) = (  -0.0555295   0.2882271   0.0000000), wk =   0.0014793
        k(  279) = (  -0.0444236   0.2690119   0.0000000), wk =   0.0014793
        k(  280) = (  -0.0333177   0.2497968   0.0000000), wk =   0.0014793
        k(  281) = (  -0.0222118   0.2305817   0.0000000), wk =   0.0014793
        k(  282) = (  -0.0111059   0.2113665   0.0000000), wk =   0.0014793
        k(  283) = (   0.0000000   0.1921514   0.0000000), wk =   0.0014793
        k(  284) = (   0.0111059   0.1729363   0.0000000), wk =   0.0014793
        k(  285) = (   0.0222118   0.1537211   0.0000000), wk =   0.0014793
        k(  286) = (   0.0333177   0.1345060   0.0000000), wk =   0.0014793
        k(  287) = (   0.0444236   0.1152908   0.0000000), wk =   0.0014793
        k(  288) = (   0.0666354   0.1152908   0.0000000), wk =   0.0014793
        k(  289) = (   0.0777413   0.0960757   0.0000000), wk =   0.0014793
        k(  290) = (   0.0888472   0.0768606   0.0000000), wk =   0.0014793
        k(  291) = (   0.0999531   0.0576454   0.0000000), wk =   0.0014793
        k(  292) = (   0.1110590   0.0384303   0.0000000), wk =   0.0014793
        k(  293) = (   0.1221649   0.0192151   0.0000000), wk =   0.0014793
        k(  294) = (   0.1332708   0.0000000   0.0000000), wk =   0.0014793
        k(  295) = (   0.1443767  -0.0192151   0.0000000), wk =   0.0014793
        k(  296) = (   0.1554826  -0.0384303   0.0000000), wk =   0.0014793
        k(  297) = (   0.1665885  -0.0576454   0.0000000), wk =   0.0014793
        k(  298) = (   0.1776944  -0.0768606   0.0000000), wk =   0.0014793
        k(  299) = (   0.1888003  -0.0960757   0.0000000), wk =   0.0014793
        k(  300) = (   0.1999062  -0.1152908   0.0000000), wk =   0.0014793
        k(  301) = (   0.2110122  -0.1345060   0.0000000), wk =   0.0014793
        k(  302) = (   0.2221181  -0.1537211   0.0000000), wk =   0.0014793
        k(  303) = (   0.2332240  -0.1729363   0.0000000), wk =   0.0014793
        k(  304) = (   0.2443299  -0.1921514   0.0000000), wk =   0.0014793
        k(  305) = (   0.2554358  -0.2113665   0.0000000), wk =   0.0014793
        k(  306) = (   0.2665417  -0.2305817   0.0000000), wk =   0.0014793
        k(  307) = (   0.2776476  -0.2497968   0.0000000), wk =   0.0014793
        k(  308) = (   0.2887535  -0.2690119   0.0000000), wk =   0.0014793
        k(  309) = (   0.2998594  -0.2882271   0.0000000), wk =   0.0014793
        k(  310) = (   0.3109653  -0.3074422   0.0000000), wk =   0.0014793
        k(  311) = (   0.3220712  -0.3266574   0.0000000), wk =   0.0014793
        k(  312) = (   0.3331771  -0.3458725   0.0000000), wk =   0.0014793
        k(  313) = (   0.3442830  -0.3650876   0.0000000), wk =   0.0014793
        k(  314) = (  -0.2221181   0.6148844   0.0000000), wk =   0.0014793
        k(  315) = (  -0.2110122   0.5956693   0.0000000), wk =   0.0014793
        k(  316) = (  -0.1999062   0.5764542   0.0000000), wk =   0.0014793
        k(  317) = (  -0.1888003   0.5572390   0.0000000), wk =   0.0014793
        k(  318) = (  -0.1776944   0.5380239   0.0000000), wk =   0.0014793
        k(  319) = (  -0.1665885   0.5188088   0.0000000), wk =   0.0014793
        k(  320) = (  -0.1554826   0.4995936   0.0000000), wk =   0.0014793
        k(  321) = (  -0.1443767   0.4803785   0.0000000), wk =   0.0014793
        k(  322) = (  -0.1332708   0.4611633   0.0000000), wk =   0.0014793
        k(  323) = (  -0.1221649   0.4419482   0.0000000), wk =   0.0014793
        k(  324) = (  -0.1110590   0.4227331   0.0000000), wk =   0.0014793
        k(  325) = (  -0.0999531   0.4035179   0.0000000), wk =   0.0014793
        k(  326) = (  -0.0888472   0.3843028   0.0000000), wk =   0.0014793
        k(  327) = (  -0.0777413   0.3650876   0.0000000), wk =   0.0014793
        k(  328) = (  -0.0666354   0.3458725   0.0000000), wk =   0.0014793
        k(  329) = (  -0.0555295   0.3266574   0.0000000), wk =   0.0014793
        k(  330) = (  -0.0444236   0.3074422   0.0000000), wk =   0.0014793
        k(  331) = (  -0.0333177   0.2882271   0.0000000), wk =   0.0014793
        k(  332) = (  -0.0222118   0.2690119   0.0000000), wk =   0.0014793
        k(  333) = (  -0.0111059   0.2497968   0.0000000), wk =   0.0014793
        k(  334) = (  -0.0000000   0.2305817   0.0000000), wk =   0.0014793
        k(  335) = (   0.0111059   0.2113665   0.0000000), wk =   0.0014793
        k(  336) = (   0.0222118   0.1921514   0.0000000), wk =   0.0014793
        k(  337) = (   0.0333177   0.1729363   0.0000000), wk =   0.0014793
        k(  338) = (   0.0444236   0.1537211   0.0000000), wk =   0.0014793
        k(  339) = (   0.0555295   0.1345060   0.0000000), wk =   0.0014793
        k(  340) = (   0.0777413   0.1345060   0.0000000), wk =   0.0014793
        k(  341) = (   0.0888472   0.1152908   0.0000000), wk =   0.0014793
        k(  342) = (   0.0999531   0.0960757   0.0000000), wk =   0.0014793
        k(  343) = (   0.1110590   0.0768606   0.0000000), wk =   0.0014793
        k(  344) = (   0.1221649   0.0576454   0.0000000), wk =   0.0014793
        k(  345) = (   0.1332708   0.0384303   0.0000000), wk =   0.0014793
        k(  346) = (   0.1443767   0.0192151   0.0000000), wk =   0.0014793
        k(  347) = (   0.1554826   0.0000000   0.0000000), wk =   0.0014793
        k(  348) = (   0.1665885  -0.0192151   0.0000000), wk =   0.0014793
        k(  349) = (   0.1776944  -0.0384303   0.0000000), wk =   0.0014793
        k(  350) = (   0.1888003  -0.0576454   0.0000000), wk =   0.0014793
        k(  351) = (   0.1999062  -0.0768606   0.0000000), wk =   0.0014793
        k(  352) = (   0.2110122  -0.0960757   0.0000000), wk =   0.0014793
        k(  353) = (   0.2221181  -0.1152908   0.0000000), wk =   0.0014793
        k(  354) = (   0.2332240  -0.1345060   0.0000000), wk =   0.0014793
        k(  355) = (   0.2443299  -0.1537211   0.0000000), wk =   0.0014793
        k(  356) = (   0.2554358  -0.1729363   0.0000000), wk =   0.0014793
        k(  357) = (   0.2665417  -0.1921514   0.0000000), wk =   0.0014793
        k(  358) = (   0.2776476  -0.2113665   0.0000000), wk =   0.0014793
        k(  359) = (   0.2887535  -0.2305817   0.0000000), wk =   0.0014793
        k(  360) = (   0.2998594  -0.2497968   0.0000000), wk =   0.0014793
        k(  361) = (   0.3109653  -0.2690119   0.0000000), wk =   0.0014793
        k(  362) = (   0.3220712  -0.2882271   0.0000000), wk =   0.0014793
        k(  363) = (   0.3331771  -0.3074422   0.0000000), wk =   0.0014793
        k(  364) = (   0.3442830  -0.3266574   0.0000000), wk =   0.0014793
        k(  365) = (   0.3553889  -0.3458725   0.0000000), wk =   0.0014793
        k(  366) = (  -0.2110122   0.6340996   0.0000000), wk =   0.0014793
        k(  367) = (  -0.1999062   0.6148844   0.0000000), wk =   0.0014793
        k(  368) = (  -0.1888003   0.5956693   0.0000000), wk =   0.0014793
        k(  369) = (  -0.1776944   0.5764542   0.0000000), wk =   0.0014793
        k(  370) = (  -0.1665885   0.5572390   0.0000000), wk =   0.0014793
        k(  371) = (  -0.1554826   0.5380239   0.0000000), wk =   0.0014793
        k(  372) = (  -0.1443767   0.5188088   0.0000000), wk =   0.0014793
        k(  373) = (  -0.1332708   0.4995936   0.0000000), wk =   0.0014793
        k(  374) = (  -0.1221649   0.4803785   0.0000000), wk =   0.0014793
        k(  375) = (  -0.1110590   0.4611633   0.0000000), wk =   0.0014793
        k(  376) = (  -0.0999531   0.4419482   0.0000000), wk =   0.0014793
        k(  377) = (  -0.0888472   0.4227331   0.0000000), wk =   0.0014793
        k(  378) = (  -0.0777413   0.4035179   0.0000000), wk =   0.0014793
        k(  379) = (  -0.0666354   0.3843028   0.0000000), wk =   0.0014793
        k(  380) = (  -0.0555295   0.3650876   0.0000000), wk =   0.0014793
        k(  381) = (  -0.0444236   0.3458725   0.0000000), wk =   0.0014793
        k(  382) = (  -0.0333177   0.3266574   0.0000000), wk =   0.0014793
        k(  383) = (  -0.0222118   0.3074422   0.0000000), wk =   0.0014793
        k(  384) = (  -0.0111059   0.2882271   0.0000000), wk =   0.0014793
        k(  385) = (   0.0000000   0.2690119   0.0000000), wk =   0.0014793
        k(  386) = (   0.0111059   0.2497968   0.0000000), wk =   0.0014793
        k(  387) = (   0.0222118   0.2305817   0.0000000), wk =   0.0014793
        k(  388) = (   0.0333177   0.2113665   0.0000000), wk =   0.0014793
        k(  389) = (   0.0444236   0.1921514   0.0000000), wk =   0.0014793
        k(  390) = (   0.0555295   0.1729363   0.0000000), wk =   0.0014793
        k(  391) = (   0.0666354   0.1537211   0.0000000), wk =   0.0014793
        k(  392) = (   0.0888472   0.1537211   0.0000000), wk =   0.0014793
        k(  393) = (   0.0999531   0.1345060   0.0000000), wk =   0.0014793
        k(  394) = (   0.1110590   0.1152908   0.0000000), wk =   0.0014793
        k(  395) = (   0.1221649   0.0960757   0.0000000), wk =   0.0014793
        k(  396) = (   0.1332708   0.0768606   0.0000000), wk =   0.0014793
        k(  397) = (   0.1443767   0.0576454   0.0000000), wk =   0.0014793
        k(  398) = (   0.1554826   0.0384303   0.0000000), wk =   0.0014793
        k(  399) = (   0.1665885   0.0192151   0.0000000), wk =   0.0014793
        k(  400) = (   0.1776944   0.0000000   0.0000000), wk =   0.0014793
        k(  401) = (   0.1888003  -0.0192151   0.0000000), wk =   0.0014793
        k(  402) = (   0.1999062  -0.0384303   0.0000000), wk =   0.0014793
        k(  403) = (   0.2110122  -0.0576454   0.0000000), wk =   0.0014793
        k(  404) = (   0.2221181  -0.0768606   0.0000000), wk =   0.0014793
        k(  405) = (   0.2332240  -0.0960757   0.0000000), wk =   0.0014793
        k(  406) = (   0.2443299  -0.1152908   0.0000000), wk =   0.0014793
        k(  407) = (   0.2554358  -0.1345060   0.0000000), wk =   0.0014793
        k(  408) = (   0.2665417  -0.1537211   0.0000000), wk =   0.0014793
        k(  409) = (   0.2776476  -0.1729363   0.0000000), wk =   0.0014793
        k(  410) = (   0.2887535  -0.1921514   0.0000000), wk =   0.0014793
        k(  411) = (   0.2998594  -0.2113665   0.0000000), wk =   0.0014793
        k(  412) = (   0.3109653  -0.2305817   0.0000000), wk =   0.0014793
        k(  413) = (   0.3220712  -0.2497968   0.0000000), wk =   0.0014793
        k(  414) = (   0.3331771  -0.2690119   0.0000000), wk =   0.0014793
        k(  415) = (   0.3442830  -0.2882271   0.0000000), wk =   0.0014793
        k(  416) = (   0.3553889  -0.3074422   0.0000000), wk =   0.0014793
        k(  417) = (   0.3664948  -0.3266574   0.0000000), wk =   0.0014793
        k(  418) = (  -0.1999062   0.6533147   0.0000000), wk =   0.0014793
        k(  419) = (  -0.1888003   0.6340996   0.0000000), wk =   0.0014793
        k(  420) = (  -0.1776944   0.6148844   0.0000000), wk =   0.0014793
        k(  421) = (  -0.1665885   0.5956693   0.0000000), wk =   0.0014793
        k(  422) = (  -0.1554826   0.5764542   0.0000000), wk =   0.0014793
        k(  423) = (  -0.1443767   0.5572390   0.0000000), wk =   0.0014793
        k(  424) = (  -0.1332708   0.5380239   0.0000000), wk =   0.0014793
        k(  425) = (  -0.1221649   0.5188088   0.0000000), wk =   0.0014793
        k(  426) = (  -0.1110590   0.4995936   0.0000000), wk =   0.0014793
        k(  427) = (  -0.0999531   0.4803785   0.0000000), wk =   0.0014793
        k(  428) = (  -0.0888472   0.4611633   0.0000000), wk =   0.0014793
        k(  429) = (  -0.0777413   0.4419482   0.0000000), wk =   0.0014793
        k(  430) = (  -0.0666354   0.4227331   0.0000000), wk =   0.0014793
        k(  431) = (  -0.0555295   0.4035179   0.0000000), wk =   0.0014793
        k(  432) = (  -0.0444236   0.3843028   0.0000000), wk =   0.0014793
        k(  433) = (  -0.0333177   0.3650876   0.0000000), wk =   0.0014793
        k(  434) = (  -0.0222118   0.3458725   0.0000000), wk =   0.0014793
        k(  435) = (  -0.0111059   0.3266574   0.0000000), wk =   0.0014793
        k(  436) = (   0.0000000   0.3074422   0.0000000), wk =   0.0014793
        k(  437) = (   0.0111059   0.2882271   0.0000000), wk =   0.0014793
        k(  438) = (   0.0222118   0.2690119   0.0000000), wk =   0.0014793
        k(  439) = (   0.0333177   0.2497968   0.0000000), wk =   0.0014793
        k(  440) = (   0.0444236   0.2305817   0.0000000), wk =   0.0014793
        k(  441) = (   0.0555295   0.2113665   0.0000000), wk =   0.0014793
        k(  442) = (   0.0666354   0.1921514   0.0000000), wk =   0.0014793
        k(  443) = (   0.0777413   0.1729363   0.0000000), wk =   0.0014793
        k(  444) = (   0.0999531   0.1729363   0.0000000), wk =   0.0014793
        k(  445) = (   0.1110590   0.1537211   0.0000000), wk =   0.0014793
        k(  446) = (   0.1221649   0.1345060   0.0000000), wk =   0.0014793
        k(  447) = (   0.1332708   0.1152908   0.0000000), wk =   0.0014793
        k(  448) = (   0.1443767   0.0960757   0.0000000), wk =   0.0014793
        k(  449) = (   0.1554826   0.0768606   0.0000000), wk =   0.0014793
        k(  450) = (   0.1665885   0.0576454   0.0000000), wk =   0.0014793
        k(  451) = (   0.1776944   0.0384303   0.0000000), wk =   0.0014793
        k(  452) = (   0.1888003   0.0192151   0.0000000), wk =   0.0014793
        k(  453) = (   0.1999062   0.0000000   0.0000000), wk =   0.0014793
        k(  454) = (   0.2110122  -0.0192151   0.0000000), wk =   0.0014793
        k(  455) = (   0.2221181  -0.0384303   0.0000000), wk =   0.0014793
        k(  456) = (   0.2332240  -0.0576454   0.0000000), wk =   0.0014793
        k(  457) = (   0.2443299  -0.0768606   0.0000000), wk =   0.0014793
        k(  458) = (   0.2554358  -0.0960757   0.0000000), wk =   0.0014793
        k(  459) = (   0.2665417  -0.1152908   0.0000000), wk =   0.0014793
        k(  460) = (   0.2776476  -0.1345060   0.0000000), wk =   0.0014793
        k(  461) = (   0.2887535  -0.1537211   0.0000000), wk =   0.0014793
        k(  462) = (   0.2998594  -0.1729363   0.0000000), wk =   0.0014793
        k(  463) = (   0.3109653  -0.1921514   0.0000000), wk =   0.0014793
        k(  464) = (   0.3220712  -0.2113665   0.0000000), wk =   0.0014793
        k(  465) = (   0.3331771  -0.2305817   0.0000000), wk =   0.0014793
        k(  466) = (   0.3442830  -0.2497968   0.0000000), wk =   0.0014793
        k(  467) = (   0.3553889  -0.2690119   0.0000000), wk =   0.0014793
        k(  468) = (   0.3664948  -0.2882271   0.0000000), wk =   0.0014793
        k(  469) = (   0.3776007  -0.3074422   0.0000000), wk =   0.0014793
        k(  470) = (  -0.1888003   0.6725299   0.0000000), wk =   0.0014793
        k(  471) = (  -0.1776944   0.6533147   0.0000000), wk =   0.0014793
        k(  472) = (  -0.1665885   0.6340996   0.0000000), wk =   0.0014793
        k(  473) = (  -0.1554826   0.6148844   0.0000000), wk =   0.0014793
        k(  474) = (  -0.1443767   0.5956693   0.0000000), wk =   0.0014793
        k(  475) = (  -0.1332708   0.5764542   0.0000000), wk =   0.0014793
        k(  476) = (  -0.1221649   0.5572390   0.0000000), wk =   0.0014793
        k(  477) = (  -0.1110590   0.5380239   0.0000000), wk =   0.0014793
        k(  478) = (  -0.0999531   0.5188088   0.0000000), wk =   0.0014793
        k(  479) = (  -0.0888472   0.4995936   0.0000000), wk =   0.0014793
        k(  480) = (  -0.0777413   0.4803785   0.0000000), wk =   0.0014793
        k(  481) = (  -0.0666354   0.4611633   0.0000000), wk =   0.0014793
        k(  482) = (  -0.0555295   0.4419482   0.0000000), wk =   0.0014793
        k(  483) = (  -0.0444236   0.4227331   0.0000000), wk =   0.0014793
        k(  484) = (  -0.0333177   0.4035179   0.0000000), wk =   0.0014793
        k(  485) = (  -0.0222118   0.3843028   0.0000000), wk =   0.0014793
        k(  486) = (  -0.0111059   0.3650876   0.0000000), wk =   0.0014793
        k(  487) = (  -0.0000000   0.3458725   0.0000000), wk =   0.0014793
        k(  488) = (   0.0111059   0.3266574   0.0000000), wk =   0.0014793
        k(  489) = (   0.0222118   0.3074422   0.0000000), wk =   0.0014793
        k(  490) = (   0.0333177   0.2882271   0.0000000), wk =   0.0014793
        k(  491) = (   0.0444236   0.2690119   0.0000000), wk =   0.0014793
        k(  492) = (   0.0555295   0.2497968   0.0000000), wk =   0.0014793
        k(  493) = (   0.0666354   0.2305817   0.0000000), wk =   0.0014793
        k(  494) = (   0.0777413   0.2113665   0.0000000), wk =   0.0014793
        k(  495) = (   0.0888472   0.1921514   0.0000000), wk =   0.0014793
        k(  496) = (   0.1110590   0.1921514   0.0000000), wk =   0.0014793
        k(  497) = (   0.1221649   0.1729363   0.0000000), wk =   0.0014793
        k(  498) = (   0.1332708   0.1537211   0.0000000), wk =   0.0014793
        k(  499) = (   0.1443767   0.1345060   0.0000000), wk =   0.0014793
        k(  500) = (   0.1554826   0.1152908   0.0000000), wk =   0.0014793
        k(  501) = (   0.1665885   0.0960757   0.0000000), wk =   0.0014793
        k(  502) = (   0.1776944   0.0768606   0.0000000), wk =   0.0014793
        k(  503) = (   0.1888003   0.0576454   0.0000000), wk =   0.0014793
        k(  504) = (   0.1999062   0.0384303   0.0000000), wk =   0.0014793
        k(  505) = (   0.2110122   0.0192151   0.0000000), wk =   0.0014793
        k(  506) = (   0.2221181   0.0000000   0.0000000), wk =   0.0014793
        k(  507) = (   0.2332240  -0.0192151   0.0000000), wk =   0.0014793
        k(  508) = (   0.2443299  -0.0384303   0.0000000), wk =   0.0014793
        k(  509) = (   0.2554358  -0.0576454   0.0000000), wk =   0.0014793
        k(  510) = (   0.2665417  -0.0768606   0.0000000), wk =   0.0014793
        k(  511) = (   0.2776476  -0.0960757   0.0000000), wk =   0.0014793
        k(  512) = (   0.2887535  -0.1152908   0.0000000), wk =   0.0014793
        k(  513) = (   0.2998594  -0.1345060   0.0000000), wk =   0.0014793
        k(  514) = (   0.3109653  -0.1537211   0.0000000), wk =   0.0014793
        k(  515) = (   0.3220712  -0.1729363   0.0000000), wk =   0.0014793
        k(  516) = (   0.3331771  -0.1921514   0.0000000), wk =   0.0014793
        k(  517) = (   0.3442830  -0.2113665   0.0000000), wk =   0.0014793
        k(  518) = (   0.3553889  -0.2305817   0.0000000), wk =   0.0014793
        k(  519) = (   0.3664948  -0.2497968   0.0000000), wk =   0.0014793
        k(  520) = (   0.3776007  -0.2690119   0.0000000), wk =   0.0014793
        k(  521) = (   0.3887066  -0.2882271   0.0000000), wk =   0.0014793
        k(  522) = (  -0.1776944   0.6917450   0.0000000), wk =   0.0014793
        k(  523) = (  -0.1665885   0.6725299   0.0000000), wk =   0.0014793
        k(  524) = (  -0.1554826   0.6533147   0.0000000), wk =   0.0014793
        k(  525) = (  -0.1443767   0.6340996   0.0000000), wk =   0.0014793
        k(  526) = (  -0.1332708   0.6148844   0.0000000), wk =   0.0014793
        k(  527) = (  -0.1221649   0.5956693   0.0000000), wk =   0.0014793
        k(  528) = (  -0.1110590   0.5764542   0.0000000), wk =   0.0014793
        k(  529) = (  -0.0999531   0.5572390   0.0000000), wk =   0.0014793
        k(  530) = (  -0.0888472   0.5380239   0.0000000), wk =   0.0014793
        k(  531) = (  -0.0777413   0.5188088   0.0000000), wk =   0.0014793
        k(  532) = (  -0.0666354   0.4995936   0.0000000), wk =   0.0014793
        k(  533) = (  -0.0555295   0.4803785   0.0000000), wk =   0.0014793
        k(  534) = (  -0.0444236   0.4611633   0.0000000), wk =   0.0014793
        k(  535) = (  -0.0333177   0.4419482   0.0000000), wk =   0.0014793
        k(  536) = (  -0.0222118   0.4227331   0.0000000), wk =   0.0014793
        k(  537) = (  -0.0111059   0.4035179   0.0000000), wk =   0.0014793
        k(  538) = (   0.0000000   0.3843028   0.0000000), wk =   0.0014793
        k(  539) = (   0.0111059   0.3650876   0.0000000), wk =   0.0014793
        k(  540) = (   0.0222118   0.3458725   0.0000000), wk =   0.0014793
        k(  541) = (   0.0333177   0.3266574   0.0000000), wk =   0.0014793
        k(  542) = (   0.0444236   0.3074422   0.0000000), wk =   0.0014793
        k(  543) = (   0.0555295   0.2882271   0.0000000), wk =   0.0014793
        k(  544) = (   0.0666354   0.2690119   0.0000000), wk =   0.0014793
        k(  545) = (   0.0777413   0.2497968   0.0000000), wk =   0.0014793
        k(  546) = (   0.0888472   0.2305817   0.0000000), wk =   0.0014793
        k(  547) = (   0.0999531   0.2113665   0.0000000), wk =   0.0014793
        k(  548) = (   0.1221649   0.2113665   0.0000000), wk =   0.0014793
        k(  549) = (   0.1332708   0.1921514   0.0000000), wk =   0.0014793
        k(  550) = (   0.1443767   0.1729363   0.0000000), wk =   0.0014793
        k(  551) = (   0.1554826   0.1537211   0.0000000), wk =   0.0014793
        k(  552) = (   0.1665885   0.1345060   0.0000000), wk =   0.0014793
        k(  553) = (   0.1776944   0.1152908   0.0000000), wk =   0.0014793
        k(  554) = (   0.1888003   0.0960757   0.0000000), wk =   0.0014793
        k(  555) = (   0.1999062   0.0768606   0.0000000), wk =   0.0014793
        k(  556) = (   0.2110122   0.0576454   0.0000000), wk =   0.0014793
        k(  557) = (   0.2221181   0.0384303   0.0000000), wk =   0.0014793
        k(  558) = (   0.2332240   0.0192151   0.0000000), wk =   0.0014793
        k(  559) = (   0.2443299   0.0000000   0.0000000), wk =   0.0014793
        k(  560) = (   0.2554358  -0.0192151   0.0000000), wk =   0.0014793
        k(  561) = (   0.2665417  -0.0384303   0.0000000), wk =   0.0014793
        k(  562) = (   0.2776476  -0.0576454   0.0000000), wk =   0.0014793
        k(  563) = (   0.2887535  -0.0768606   0.0000000), wk =   0.0014793
        k(  564) = (   0.2998594  -0.0960757   0.0000000), wk =   0.0014793
        k(  565) = (   0.3109653  -0.1152908   0.0000000), wk =   0.0014793
        k(  566) = (   0.3220712  -0.1345060   0.0000000), wk =   0.0014793
        k(  567) = (   0.3331771  -0.1537211   0.0000000), wk =   0.0014793
        k(  568) = (   0.3442830  -0.1729363   0.0000000), wk =   0.0014793
        k(  569) = (   0.3553889  -0.1921514   0.0000000), wk =   0.0014793
        k(  570) = (   0.3664948  -0.2113665   0.0000000), wk =   0.0014793
        k(  571) = (   0.3776007  -0.2305817   0.0000000), wk =   0.0014793
        k(  572) = (   0.3887066  -0.2497968   0.0000000), wk =   0.0014793
        k(  573) = (   0.3998125  -0.2690119   0.0000000), wk =   0.0014793
        k(  574) = (  -0.1665885   0.7109601   0.0000000), wk =   0.0014793
        k(  575) = (  -0.1554826   0.6917450   0.0000000), wk =   0.0014793
        k(  576) = (  -0.1443767   0.6725299   0.0000000), wk =   0.0014793
        k(  577) = (  -0.1332708   0.6533147   0.0000000), wk =   0.0014793
        k(  578) = (  -0.1221649   0.6340996   0.0000000), wk =   0.0014793
        k(  579) = (  -0.1110590   0.6148844   0.0000000), wk =   0.0014793
        k(  580) = (  -0.0999531   0.5956693   0.0000000), wk =   0.0014793
        k(  581) = (  -0.0888472   0.5764542   0.0000000), wk =   0.0014793
        k(  582) = (  -0.0777413   0.5572390   0.0000000), wk =   0.0014793
        k(  583) = (  -0.0666354   0.5380239   0.0000000), wk =   0.0014793
        k(  584) = (  -0.0555295   0.5188088   0.0000000), wk =   0.0014793
        k(  585) = (  -0.0444236   0.4995936   0.0000000), wk =   0.0014793
        k(  586) = (  -0.0333177   0.4803785   0.0000000), wk =   0.0014793
        k(  587) = (  -0.0222118   0.4611633   0.0000000), wk =   0.0014793
        k(  588) = (  -0.0111059   0.4419482   0.0000000), wk =   0.0014793
        k(  589) = (   0.0000000   0.4227331   0.0000000), wk =   0.0014793
        k(  590) = (   0.0111059   0.4035179   0.0000000), wk =   0.0014793
        k(  591) = (   0.0222118   0.3843028   0.0000000), wk =   0.0014793
        k(  592) = (   0.0333177   0.3650876   0.0000000), wk =   0.0014793
        k(  593) = (   0.0444236   0.3458725   0.0000000), wk =   0.0014793
        k(  594) = (   0.0555295   0.3266574   0.0000000), wk =   0.0014793
        k(  595) = (   0.0666354   0.3074422   0.0000000), wk =   0.0014793
        k(  596) = (   0.0777413   0.2882271   0.0000000), wk =   0.0014793
        k(  597) = (   0.0888472   0.2690119   0.0000000), wk =   0.0014793
        k(  598) = (   0.0999531   0.2497968   0.0000000), wk =   0.0014793
        k(  599) = (   0.1110590   0.2305817   0.0000000), wk =   0.0014793
        k(  600) = (   0.1332708   0.2305817   0.0000000), wk =   0.0014793
        k(  601) = (   0.1443767   0.2113665   0.0000000), wk =   0.0014793
        k(  602) = (   0.1554826   0.1921514   0.0000000), wk =   0.0014793
        k(  603) = (   0.1665885   0.1729363   0.0000000), wk =   0.0014793
        k(  604) = (   0.1776944   0.1537211   0.0000000), wk =   0.0014793
        k(  605) = (   0.1888003   0.1345060   0.0000000), wk =   0.0014793
        k(  606) = (   0.1999062   0.1152908   0.0000000), wk =   0.0014793
        k(  607) = (   0.2110122   0.0960757   0.0000000), wk =   0.0014793
        k(  608) = (   0.2221181   0.0768606   0.0000000), wk =   0.0014793
        k(  609) = (   0.2332240   0.0576454   0.0000000), wk =   0.0014793
        k(  610) = (   0.2443299   0.0384303   0.0000000), wk =   0.0014793
        k(  611) = (   0.2554358   0.0192151   0.0000000), wk =   0.0014793
        k(  612) = (   0.2665417   0.0000000   0.0000000), wk =   0.0014793
        k(  613) = (   0.2776476  -0.0192151   0.0000000), wk =   0.0014793
        k(  614) = (   0.2887535  -0.0384303   0.0000000), wk =   0.0014793
        k(  615) = (   0.2998594  -0.0576454   0.0000000), wk =   0.0014793
        k(  616) = (   0.3109653  -0.0768606   0.0000000), wk =   0.0014793
        k(  617) = (   0.3220712  -0.0960757   0.0000000), wk =   0.0014793
        k(  618) = (   0.3331771  -0.1152908   0.0000000), wk =   0.0014793
        k(  619) = (   0.3442830  -0.1345060   0.0000000), wk =   0.0014793
        k(  620) = (   0.3553889  -0.1537211   0.0000000), wk =   0.0014793
        k(  621) = (   0.3664948  -0.1729363   0.0000000), wk =   0.0014793
        k(  622) = (   0.3776007  -0.1921514   0.0000000), wk =   0.0014793
        k(  623) = (   0.3887066  -0.2113665   0.0000000), wk =   0.0014793
        k(  624) = (   0.3998125  -0.2305817   0.0000000), wk =   0.0014793
        k(  625) = (   0.4109184  -0.2497968   0.0000000), wk =   0.0014793
        k(  626) = (  -0.1554826   0.7301753   0.0000000), wk =   0.0014793
        k(  627) = (  -0.1443767   0.7109601   0.0000000), wk =   0.0014793
        k(  628) = (  -0.1332708   0.6917450   0.0000000), wk =   0.0014793
        k(  629) = (  -0.1221649   0.6725299   0.0000000), wk =   0.0014793
        k(  630) = (  -0.1110590   0.6533147   0.0000000), wk =   0.0014793
        k(  631) = (  -0.0999531   0.6340996   0.0000000), wk =   0.0014793
        k(  632) = (  -0.0888472   0.6148844   0.0000000), wk =   0.0014793
        k(  633) = (  -0.0777413   0.5956693   0.0000000), wk =   0.0014793
        k(  634) = (  -0.0666354   0.5764542   0.0000000), wk =   0.0014793
        k(  635) = (  -0.0555295   0.5572390   0.0000000), wk =   0.0014793
        k(  636) = (  -0.0444236   0.5380239   0.0000000), wk =   0.0014793
        k(  637) = (  -0.0333177   0.5188088   0.0000000), wk =   0.0014793
        k(  638) = (  -0.0222118   0.4995936   0.0000000), wk =   0.0014793
        k(  639) = (  -0.0111059   0.4803785   0.0000000), wk =   0.0014793
        k(  640) = (   0.0000000   0.4611633   0.0000000), wk =   0.0014793
        k(  641) = (   0.0111059   0.4419482   0.0000000), wk =   0.0014793
        k(  642) = (   0.0222118   0.4227331   0.0000000), wk =   0.0014793
        k(  643) = (   0.0333177   0.4035179   0.0000000), wk =   0.0014793
        k(  644) = (   0.0444236   0.3843028   0.0000000), wk =   0.0014793
        k(  645) = (   0.0555295   0.3650876   0.0000000), wk =   0.0014793
        k(  646) = (   0.0666354   0.3458725   0.0000000), wk =   0.0014793
        k(  647) = (   0.0777413   0.3266574   0.0000000), wk =   0.0014793
        k(  648) = (   0.0888472   0.3074422   0.0000000), wk =   0.0014793
        k(  649) = (   0.0999531   0.2882271   0.0000000), wk =   0.0014793
        k(  650) = (   0.1110590   0.2690119   0.0000000), wk =   0.0014793
        k(  651) = (   0.1221649   0.2497968   0.0000000), wk =   0.0014793
        k(  652) = (   0.1443767   0.2497968   0.0000000), wk =   0.0014793
        k(  653) = (   0.1554826   0.2305817   0.0000000), wk =   0.0014793
        k(  654) = (   0.1665885   0.2113665   0.0000000), wk =   0.0014793
        k(  655) = (   0.1776944   0.1921514   0.0000000), wk =   0.0014793
        k(  656) = (   0.1888003   0.1729363   0.0000000), wk =   0.0014793
        k(  657) = (   0.1999062   0.1537211   0.0000000), wk =   0.0014793
        k(  658) = (   0.2110122   0.1345060   0.0000000), wk =   0.0014793
        k(  659) = (   0.2221181   0.1152908   0.0000000), wk =   0.0014793
        k(  660) = (   0.2332240   0.0960757   0.0000000), wk =   0.0014793
        k(  661) = (   0.2443299   0.0768606   0.0000000), wk =   0.0014793
        k(  662) = (   0.2554358   0.0576454   0.0000000), wk =   0.0014793
        k(  663) = (   0.2665417   0.0384303   0.0000000), wk =   0.0014793
        k(  664) = (   0.2776476   0.0192151   0.0000000), wk =   0.0014793
        k(  665) = (   0.2887535   0.0000000   0.0000000), wk =   0.0014793
        k(  666) = (   0.2998594  -0.0192151   0.0000000), wk =   0.0014793
        k(  667) = (   0.3109653  -0.0384303   0.0000000), wk =   0.0014793
        k(  668) = (   0.3220712  -0.0576454   0.0000000), wk =   0.0014793
        k(  669) = (   0.3331771  -0.0768606   0.0000000), wk =   0.0014793
        k(  670) = (   0.3442830  -0.0960757   0.0000000), wk =   0.0014793
        k(  671) = (   0.3553889  -0.1152908   0.0000000), wk =   0.0014793
        k(  672) = (   0.3664948  -0.1345060   0.0000000), wk =   0.0014793
        k(  673) = (   0.3776007  -0.1537211   0.0000000), wk =   0.0014793
        k(  674) = (   0.3887066  -0.1729363   0.0000000), wk =   0.0014793
        k(  675) = (   0.3998125  -0.1921514   0.0000000), wk =   0.0014793
        k(  676) = (   0.4109184  -0.2113665   0.0000000), wk =   0.0014793
        k(  677) = (   0.4220243  -0.2305817   0.0000000), wk =   0.0014793
        k(  678) = (  -0.1443767   0.7493904   0.0000000), wk =   0.0014793
        k(  679) = (  -0.1332708   0.7301753   0.0000000), wk =   0.0014793
        k(  680) = (  -0.1221649   0.7109601   0.0000000), wk =   0.0014793
        k(  681) = (  -0.1110590   0.6917450   0.0000000), wk =   0.0014793
        k(  682) = (  -0.0999531   0.6725299   0.0000000), wk =   0.0014793
        k(  683) = (  -0.0888472   0.6533147   0.0000000), wk =   0.0014793
        k(  684) = (  -0.0777413   0.6340996   0.0000000), wk =   0.0014793
        k(  685) = (  -0.0666354   0.6148844   0.0000000), wk =   0.0014793
        k(  686) = (  -0.0555295   0.5956693   0.0000000), wk =   0.0014793
        k(  687) = (  -0.0444236   0.5764542   0.0000000), wk =   0.0014793
        k(  688) = (  -0.0333177   0.5572390   0.0000000), wk =   0.0014793
        k(  689) = (  -0.0222118   0.5380239   0.0000000), wk =   0.0014793
        k(  690) = (  -0.0111059   0.5188088   0.0000000), wk =   0.0014793
        k(  691) = (   0.0000000   0.4995936   0.0000000), wk =   0.0014793
        k(  692) = (   0.0111059   0.4803785   0.0000000), wk =   0.0014793
        k(  693) = (   0.0222118   0.4611633   0.0000000), wk =   0.0014793
        k(  694) = (   0.0333177   0.4419482   0.0000000), wk =   0.0014793
        k(  695) = (   0.0444236   0.4227331   0.0000000), wk =   0.0014793
        k(  696) = (   0.0555295   0.4035179   0.0000000), wk =   0.0014793
        k(  697) = (   0.0666354   0.3843028   0.0000000), wk =   0.0014793
        k(  698) = (   0.0777413   0.3650876   0.0000000), wk =   0.0014793
        k(  699) = (   0.0888472   0.3458725   0.0000000), wk =   0.0014793
        k(  700) = (   0.0999531   0.3266574   0.0000000), wk =   0.0014793
        k(  701) = (   0.1110590   0.3074422   0.0000000), wk =   0.0014793
        k(  702) = (   0.1221649   0.2882271   0.0000000), wk =   0.0014793
        k(  703) = (   0.1332708   0.2690119   0.0000000), wk =   0.0014793
        k(  704) = (   0.1554826   0.2690119   0.0000000), wk =   0.0014793
        k(  705) = (   0.1665885   0.2497968   0.0000000), wk =   0.0014793
        k(  706) = (   0.1776944   0.2305817   0.0000000), wk =   0.0014793
        k(  707) = (   0.1888003   0.2113665   0.0000000), wk =   0.0014793
        k(  708) = (   0.1999062   0.1921514   0.0000000), wk =   0.0014793
        k(  709) = (   0.2110122   0.1729363   0.0000000), wk =   0.0014793
        k(  710) = (   0.2221181   0.1537211   0.0000000), wk =   0.0014793
        k(  711) = (   0.2332240   0.1345060   0.0000000), wk =   0.0014793
        k(  712) = (   0.2443299   0.1152908   0.0000000), wk =   0.0014793
        k(  713) = (   0.2554358   0.0960757   0.0000000), wk =   0.0014793
        k(  714) = (   0.2665417   0.0768606   0.0000000), wk =   0.0014793
        k(  715) = (   0.2776476   0.0576454   0.0000000), wk =   0.0014793
        k(  716) = (   0.2887535   0.0384303   0.0000000), wk =   0.0014793
        k(  717) = (   0.2998594   0.0192151   0.0000000), wk =   0.0014793
        k(  718) = (   0.3109653   0.0000000   0.0000000), wk =   0.0014793
        k(  719) = (   0.3220712  -0.0192151   0.0000000), wk =   0.0014793
        k(  720) = (   0.3331771  -0.0384303   0.0000000), wk =   0.0014793
        k(  721) = (   0.3442830  -0.0576454   0.0000000), wk =   0.0014793
        k(  722) = (   0.3553889  -0.0768606   0.0000000), wk =   0.0014793
        k(  723) = (   0.3664948  -0.0960757   0.0000000), wk =   0.0014793
        k(  724) = (   0.3776007  -0.1152908   0.0000000), wk =   0.0014793
        k(  725) = (   0.3887066  -0.1345060   0.0000000), wk =   0.0014793
        k(  726) = (   0.3998125  -0.1537211   0.0000000), wk =   0.0014793
        k(  727) = (   0.4109184  -0.1729363   0.0000000), wk =   0.0014793
        k(  728) = (   0.4220243  -0.1921514   0.0000000), wk =   0.0014793
        k(  729) = (   0.4331302  -0.2113665   0.0000000), wk =   0.0014793
        k(  730) = (  -0.1332708   0.7686056   0.0000000), wk =   0.0014793
        k(  731) = (  -0.1221649   0.7493904   0.0000000), wk =   0.0014793
        k(  732) = (  -0.1110590   0.7301753   0.0000000), wk =   0.0014793
        k(  733) = (  -0.0999531   0.7109601   0.0000000), wk =   0.0014793
        k(  734) = (  -0.0888472   0.6917450   0.0000000), wk =   0.0014793
        k(  735) = (  -0.0777413   0.6725299   0.0000000), wk =   0.0014793
        k(  736) = (  -0.0666354   0.6533147   0.0000000), wk =   0.0014793
        k(  737) = (  -0.0555295   0.6340996   0.0000000), wk =   0.0014793
        k(  738) = (  -0.0444236   0.6148844   0.0000000), wk =   0.0014793
        k(  739) = (  -0.0333177   0.5956693   0.0000000), wk =   0.0014793
        k(  740) = (  -0.0222118   0.5764542   0.0000000), wk =   0.0014793
        k(  741) = (  -0.0111059   0.5572390   0.0000000), wk =   0.0014793
        k(  742) = (   0.0000000   0.5380239   0.0000000), wk =   0.0014793
        k(  743) = (   0.0111059   0.5188088   0.0000000), wk =   0.0014793
        k(  744) = (   0.0222118   0.4995936   0.0000000), wk =   0.0014793
        k(  745) = (   0.0333177   0.4803785   0.0000000), wk =   0.0014793
        k(  746) = (   0.0444236   0.4611633   0.0000000), wk =   0.0014793
        k(  747) = (   0.0555295   0.4419482   0.0000000), wk =   0.0014793
        k(  748) = (   0.0666354   0.4227331   0.0000000), wk =   0.0014793
        k(  749) = (   0.0777413   0.4035179   0.0000000), wk =   0.0014793
        k(  750) = (   0.0888472   0.3843028   0.0000000), wk =   0.0014793
        k(  751) = (   0.0999531   0.3650876   0.0000000), wk =   0.0014793
        k(  752) = (   0.1110590   0.3458725   0.0000000), wk =   0.0014793
        k(  753) = (   0.1221649   0.3266574   0.0000000), wk =   0.0014793
        k(  754) = (   0.1332708   0.3074422   0.0000000), wk =   0.0014793
        k(  755) = (   0.1443767   0.2882271   0.0000000), wk =   0.0014793
        k(  756) = (   0.1665885   0.2882271   0.0000000), wk =   0.0014793
        k(  757) = (   0.1776944   0.2690119   0.0000000), wk =   0.0014793
        k(  758) = (   0.1888003   0.2497968   0.0000000), wk =   0.0014793
        k(  759) = (   0.1999062   0.2305817   0.0000000), wk =   0.0014793
        k(  760) = (   0.2110122   0.2113665   0.0000000), wk =   0.0014793
        k(  761) = (   0.2221181   0.1921514   0.0000000), wk =   0.0014793
        k(  762) = (   0.2332240   0.1729363   0.0000000), wk =   0.0014793
        k(  763) = (   0.2443299   0.1537211   0.0000000), wk =   0.0014793
        k(  764) = (   0.2554358   0.1345060   0.0000000), wk =   0.0014793
        k(  765) = (   0.2665417   0.1152908   0.0000000), wk =   0.0014793
        k(  766) = (   0.2776476   0.0960757   0.0000000), wk =   0.0014793
        k(  767) = (   0.2887535   0.0768606   0.0000000), wk =   0.0014793
        k(  768) = (   0.2998594   0.0576454   0.0000000), wk =   0.0014793
        k(  769) = (   0.3109653   0.0384303   0.0000000), wk =   0.0014793
        k(  770) = (   0.3220712   0.0192151   0.0000000), wk =   0.0014793
        k(  771) = (   0.3331771   0.0000000   0.0000000), wk =   0.0014793
        k(  772) = (   0.3442830  -0.0192151   0.0000000), wk =   0.0014793
        k(  773) = (   0.3553889  -0.0384303   0.0000000), wk =   0.0014793
        k(  774) = (   0.3664948  -0.0576454   0.0000000), wk =   0.0014793
        k(  775) = (   0.3776007  -0.0768606   0.0000000), wk =   0.0014793
        k(  776) = (   0.3887066  -0.0960757   0.0000000), wk =   0.0014793
        k(  777) = (   0.3998125  -0.1152908   0.0000000), wk =   0.0014793
        k(  778) = (   0.4109184  -0.1345060   0.0000000), wk =   0.0014793
        k(  779) = (   0.4220243  -0.1537211   0.0000000), wk =   0.0014793
        k(  780) = (   0.4331302  -0.1729363   0.0000000), wk =   0.0014793
        k(  781) = (   0.4442361  -0.1921514   0.0000000), wk =   0.0014793
        k(  782) = (  -0.1221649   0.7878207   0.0000000), wk =   0.0014793
        k(  783) = (  -0.1110590   0.7686056   0.0000000), wk =   0.0014793
        k(  784) = (  -0.0999531   0.7493904   0.0000000), wk =   0.0014793
        k(  785) = (  -0.0888472   0.7301753   0.0000000), wk =   0.0014793
        k(  786) = (  -0.0777413   0.7109601   0.0000000), wk =   0.0014793
        k(  787) = (  -0.0666354   0.6917450   0.0000000), wk =   0.0014793
        k(  788) = (  -0.0555295   0.6725299   0.0000000), wk =   0.0014793
        k(  789) = (  -0.0444236   0.6533147   0.0000000), wk =   0.0014793
        k(  790) = (  -0.0333177   0.6340996   0.0000000), wk =   0.0014793
        k(  791) = (  -0.0222118   0.6148844   0.0000000), wk =   0.0014793
        k(  792) = (  -0.0111059   0.5956693   0.0000000), wk =   0.0014793
        k(  793) = (   0.0000000   0.5764542   0.0000000), wk =   0.0014793
        k(  794) = (   0.0111059   0.5572390   0.0000000), wk =   0.0014793
        k(  795) = (   0.0222118   0.5380239   0.0000000), wk =   0.0014793
        k(  796) = (   0.0333177   0.5188088   0.0000000), wk =   0.0014793
        k(  797) = (   0.0444236   0.4995936   0.0000000), wk =   0.0014793
        k(  798) = (   0.0555295   0.4803785   0.0000000), wk =   0.0014793
        k(  799) = (   0.0666354   0.4611633   0.0000000), wk =   0.0014793
        k(  800) = (   0.0777413   0.4419482   0.0000000), wk =   0.0014793
        k(  801) = (   0.0888472   0.4227331   0.0000000), wk =   0.0014793
        k(  802) = (   0.0999531   0.4035179   0.0000000), wk =   0.0014793
        k(  803) = (   0.1110590   0.3843028   0.0000000), wk =   0.0014793
        k(  804) = (   0.1221649   0.3650876   0.0000000), wk =   0.0014793
        k(  805) = (   0.1332708   0.3458725   0.0000000), wk =   0.0014793
        k(  806) = (   0.1443767   0.3266574   0.0000000), wk =   0.0014793
        k(  807) = (   0.1554826   0.3074422   0.0000000), wk =   0.0014793
        k(  808) = (   0.1776944   0.3074422   0.0000000), wk =   0.0014793
        k(  809) = (   0.1888003   0.2882271   0.0000000), wk =   0.0014793
        k(  810) = (   0.1999062   0.2690119   0.0000000), wk =   0.0014793
        k(  811) = (   0.2110122   0.2497968   0.0000000), wk =   0.0014793
        k(  812) = (   0.2221181   0.2305817   0.0000000), wk =   0.0014793
        k(  813) = (   0.2332240   0.2113665   0.0000000), wk =   0.0014793
        k(  814) = (   0.2443299   0.1921514   0.0000000), wk =   0.0014793
        k(  815) = (   0.2554358   0.1729363   0.0000000), wk =   0.0014793
        k(  816) = (   0.2665417   0.1537211   0.0000000), wk =   0.0014793
        k(  817) = (   0.2776476   0.1345060   0.0000000), wk =   0.0014793
        k(  818) = (   0.2887535   0.1152908   0.0000000), wk =   0.0014793
        k(  819) = (   0.2998594   0.0960757   0.0000000), wk =   0.0014793
        k(  820) = (   0.3109653   0.0768606   0.0000000), wk =   0.0014793
        k(  821) = (   0.3220712   0.0576454   0.0000000), wk =   0.0014793
        k(  822) = (   0.3331771   0.0384303   0.0000000), wk =   0.0014793
        k(  823) = (   0.3442830   0.0192151   0.0000000), wk =   0.0014793
        k(  824) = (   0.3553889   0.0000000   0.0000000), wk =   0.0014793
        k(  825) = (   0.3664948  -0.0192151   0.0000000), wk =   0.0014793
        k(  826) = (   0.3776007  -0.0384303   0.0000000), wk =   0.0014793
        k(  827) = (   0.3887066  -0.0576454   0.0000000), wk =   0.0014793
        k(  828) = (   0.3998125  -0.0768606   0.0000000), wk =   0.0014793
        k(  829) = (   0.4109184  -0.0960757   0.0000000), wk =   0.0014793
        k(  830) = (   0.4220243  -0.1152908   0.0000000), wk =   0.0014793
        k(  831) = (   0.4331302  -0.1345060   0.0000000), wk =   0.0014793
        k(  832) = (   0.4442361  -0.1537211   0.0000000), wk =   0.0014793
        k(  833) = (   0.4553420  -0.1729363   0.0000000), wk =   0.0014793
        k(  834) = (  -0.1110590   0.8070358   0.0000000), wk =   0.0014793
        k(  835) = (  -0.0999531   0.7878207   0.0000000), wk =   0.0014793
        k(  836) = (  -0.0888472   0.7686056   0.0000000), wk =   0.0014793
        k(  837) = (  -0.0777413   0.7493904   0.0000000), wk =   0.0014793
        k(  838) = (  -0.0666354   0.7301753   0.0000000), wk =   0.0014793
        k(  839) = (  -0.0555295   0.7109601   0.0000000), wk =   0.0014793
        k(  840) = (  -0.0444236   0.6917450   0.0000000), wk =   0.0014793
        k(  841) = (  -0.0333177   0.6725299   0.0000000), wk =   0.0014793
        k(  842) = (  -0.0222118   0.6533147   0.0000000), wk =   0.0014793
        k(  843) = (  -0.0111059   0.6340996   0.0000000), wk =   0.0014793
        k(  844) = (   0.0000000   0.6148844   0.0000000), wk =   0.0014793
        k(  845) = (   0.0111059   0.5956693   0.0000000), wk =   0.0014793
        k(  846) = (   0.0222118   0.5764542   0.0000000), wk =   0.0014793
        k(  847) = (   0.0333177   0.5572390   0.0000000), wk =   0.0014793
        k(  848) = (   0.0444236   0.5380239   0.0000000), wk =   0.0014793
        k(  849) = (   0.0555295   0.5188088   0.0000000), wk =   0.0014793
        k(  850) = (   0.0666354   0.4995936   0.0000000), wk =   0.0014793
        k(  851) = (   0.0777413   0.4803785   0.0000000), wk =   0.0014793
        k(  852) = (   0.0888472   0.4611633   0.0000000), wk =   0.0014793
        k(  853) = (   0.0999531   0.4419482   0.0000000), wk =   0.0014793
        k(  854) = (   0.1110590   0.4227331   0.0000000), wk =   0.0014793
        k(  855) = (   0.1221649   0.4035179   0.0000000), wk =   0.0014793
        k(  856) = (   0.1332708   0.3843028   0.0000000), wk =   0.0014793
        k(  857) = (   0.1443767   0.3650876   0.0000000), wk =   0.0014793
        k(  858) = (   0.1554826   0.3458725   0.0000000), wk =   0.0014793
        k(  859) = (   0.1665885   0.3266574   0.0000000), wk =   0.0014793
        k(  860) = (   0.1888003   0.3266574   0.0000000), wk =   0.0014793
        k(  861) = (   0.1999062   0.3074422   0.0000000), wk =   0.0014793
        k(  862) = (   0.2110122   0.2882271   0.0000000), wk =   0.0014793
        k(  863) = (   0.2221181   0.2690119   0.0000000), wk =   0.0014793
        k(  864) = (   0.2332240   0.2497968   0.0000000), wk =   0.0014793
        k(  865) = (   0.2443299   0.2305817   0.0000000), wk =   0.0014793
        k(  866) = (   0.2554358   0.2113665   0.0000000), wk =   0.0014793
        k(  867) = (   0.2665417   0.1921514   0.0000000), wk =   0.0014793
        k(  868) = (   0.2776476   0.1729363   0.0000000), wk =   0.0014793
        k(  869) = (   0.2887535   0.1537211   0.0000000), wk =   0.0014793
        k(  870) = (   0.2998594   0.1345060   0.0000000), wk =   0.0014793
        k(  871) = (   0.3109653   0.1152908   0.0000000), wk =   0.0014793
        k(  872) = (   0.3220712   0.0960757   0.0000000), wk =   0.0014793
        k(  873) = (   0.3331771   0.0768606   0.0000000), wk =   0.0014793
        k(  874) = (   0.3442830   0.0576454   0.0000000), wk =   0.0014793
        k(  875) = (   0.3553889   0.0384303   0.0000000), wk =   0.0014793
        k(  876) = (   0.3664948   0.0192151   0.0000000), wk =   0.0014793
        k(  877) = (   0.3776007   0.0000000   0.0000000), wk =   0.0014793
        k(  878) = (   0.3887066  -0.0192151   0.0000000), wk =   0.0014793
        k(  879) = (   0.3998125  -0.0384303   0.0000000), wk =   0.0014793
        k(  880) = (   0.4109184  -0.0576454   0.0000000), wk =   0.0014793
        k(  881) = (   0.4220243  -0.0768606   0.0000000), wk =   0.0014793
        k(  882) = (   0.4331302  -0.0960757   0.0000000), wk =   0.0014793
        k(  883) = (   0.4442361  -0.1152908   0.0000000), wk =   0.0014793
        k(  884) = (   0.4553420  -0.1345060   0.0000000), wk =   0.0014793
        k(  885) = (   0.4664479  -0.1537211   0.0000000), wk =   0.0014793
        k(  886) = (  -0.0999531   0.8262510   0.0000000), wk =   0.0014793
        k(  887) = (  -0.0888472   0.8070358   0.0000000), wk =   0.0014793
        k(  888) = (  -0.0777413   0.7878207   0.0000000), wk =   0.0014793
        k(  889) = (  -0.0666354   0.7686056   0.0000000), wk =   0.0014793
        k(  890) = (  -0.0555295   0.7493904   0.0000000), wk =   0.0014793
        k(  891) = (  -0.0444236   0.7301753   0.0000000), wk =   0.0014793
        k(  892) = (  -0.0333177   0.7109601   0.0000000), wk =   0.0014793
        k(  893) = (  -0.0222118   0.6917450   0.0000000), wk =   0.0014793
        k(  894) = (  -0.0111059   0.6725299   0.0000000), wk =   0.0014793
        k(  895) = (   0.0000000   0.6533147   0.0000000), wk =   0.0014793
        k(  896) = (   0.0111059   0.6340996   0.0000000), wk =   0.0014793
        k(  897) = (   0.0222118   0.6148844   0.0000000), wk =   0.0014793
        k(  898) = (   0.0333177   0.5956693   0.0000000), wk =   0.0014793
        k(  899) = (   0.0444236   0.5764542   0.0000000), wk =   0.0014793
        k(  900) = (   0.0555295   0.5572390   0.0000000), wk =   0.0014793
        k(  901) = (   0.0666354   0.5380239   0.0000000), wk =   0.0014793
        k(  902) = (   0.0777413   0.5188088   0.0000000), wk =   0.0014793
        k(  903) = (   0.0888472   0.4995936   0.0000000), wk =   0.0014793
        k(  904) = (   0.0999531   0.4803785   0.0000000), wk =   0.0014793
        k(  905) = (   0.1110590   0.4611633   0.0000000), wk =   0.0014793
        k(  906) = (   0.1221649   0.4419482   0.0000000), wk =   0.0014793
        k(  907) = (   0.1332708   0.4227331   0.0000000), wk =   0.0014793
        k(  908) = (   0.1443767   0.4035179   0.0000000), wk =   0.0014793
        k(  909) = (   0.1554826   0.3843028   0.0000000), wk =   0.0014793
        k(  910) = (   0.1665885   0.3650876   0.0000000), wk =   0.0014793
        k(  911) = (   0.1776944   0.3458725   0.0000000), wk =   0.0014793
        k(  912) = (   0.1999062   0.3458725   0.0000000), wk =   0.0014793
        k(  913) = (   0.2110122   0.3266574   0.0000000), wk =   0.0014793
        k(  914) = (   0.2221181   0.3074422   0.0000000), wk =   0.0014793
        k(  915) = (   0.2332240   0.2882271   0.0000000), wk =   0.0014793
        k(  916) = (   0.2443299   0.2690119   0.0000000), wk =   0.0014793
        k(  917) = (   0.2554358   0.2497968   0.0000000), wk =   0.0014793
        k(  918) = (   0.2665417   0.2305817   0.0000000), wk =   0.0014793
        k(  919) = (   0.2776476   0.2113665   0.0000000), wk =   0.0014793
        k(  920) = (   0.2887535   0.1921514   0.0000000), wk =   0.0014793
        k(  921) = (   0.2998594   0.1729363   0.0000000), wk =   0.0014793
        k(  922) = (   0.3109653   0.1537211   0.0000000), wk =   0.0014793
        k(  923) = (   0.3220712   0.1345060   0.0000000), wk =   0.0014793
        k(  924) = (   0.3331771   0.1152908   0.0000000), wk =   0.0014793
        k(  925) = (   0.3442830   0.0960757   0.0000000), wk =   0.0014793
        k(  926) = (   0.3553889   0.0768606   0.0000000), wk =   0.0014793
        k(  927) = (   0.3664948   0.0576454   0.0000000), wk =   0.0014793
        k(  928) = (   0.3776007   0.0384303   0.0000000), wk =   0.0014793
        k(  929) = (   0.3887066   0.0192151   0.0000000), wk =   0.0014793
        k(  930) = (   0.3998125   0.0000000   0.0000000), wk =   0.0014793
        k(  931) = (   0.4109184  -0.0192151   0.0000000), wk =   0.0014793
        k(  932) = (   0.4220243  -0.0384303   0.0000000), wk =   0.0014793
        k(  933) = (   0.4331302  -0.0576454   0.0000000), wk =   0.0014793
        k(  934) = (   0.4442361  -0.0768606   0.0000000), wk =   0.0014793
        k(  935) = (   0.4553420  -0.0960757   0.0000000), wk =   0.0014793
        k(  936) = (   0.4664479  -0.1152908   0.0000000), wk =   0.0014793
        k(  937) = (   0.4775538  -0.1345060   0.0000000), wk =   0.0014793
        k(  938) = (  -0.0888472   0.8454661   0.0000000), wk =   0.0014793
        k(  939) = (  -0.0777413   0.8262510   0.0000000), wk =   0.0014793
        k(  940) = (  -0.0666354   0.8070358   0.0000000), wk =   0.0014793
        k(  941) = (  -0.0555295   0.7878207   0.0000000), wk =   0.0014793
        k(  942) = (  -0.0444236   0.7686056   0.0000000), wk =   0.0014793
        k(  943) = (  -0.0333177   0.7493904   0.0000000), wk =   0.0014793
        k(  944) = (  -0.0222118   0.7301753   0.0000000), wk =   0.0014793
        k(  945) = (  -0.0111059   0.7109601   0.0000000), wk =   0.0014793
        k(  946) = (   0.0000000   0.6917450   0.0000000), wk =   0.0014793
        k(  947) = (   0.0111059   0.6725299   0.0000000), wk =   0.0014793
        k(  948) = (   0.0222118   0.6533147   0.0000000), wk =   0.0014793
        k(  949) = (   0.0333177   0.6340996   0.0000000), wk =   0.0014793
        k(  950) = (   0.0444236   0.6148844   0.0000000), wk =   0.0014793
        k(  951) = (   0.0555295   0.5956693   0.0000000), wk =   0.0014793
        k(  952) = (   0.0666354   0.5764542   0.0000000), wk =   0.0014793
        k(  953) = (   0.0777413   0.5572390   0.0000000), wk =   0.0014793
        k(  954) = (   0.0888472   0.5380239   0.0000000), wk =   0.0014793
        k(  955) = (   0.0999531   0.5188088   0.0000000), wk =   0.0014793
        k(  956) = (   0.1110590   0.4995936   0.0000000), wk =   0.0014793
        k(  957) = (   0.1221649   0.4803785   0.0000000), wk =   0.0014793
        k(  958) = (   0.1332708   0.4611633   0.0000000), wk =   0.0014793
        k(  959) = (   0.1443767   0.4419482   0.0000000), wk =   0.0014793
        k(  960) = (   0.1554826   0.4227331   0.0000000), wk =   0.0014793
        k(  961) = (   0.1665885   0.4035179   0.0000000), wk =   0.0014793
        k(  962) = (   0.1776944   0.3843028   0.0000000), wk =   0.0014793
        k(  963) = (   0.1888003   0.3650876   0.0000000), wk =   0.0014793
        k(  964) = (   0.2110122   0.3650876   0.0000000), wk =   0.0014793
        k(  965) = (   0.2221181   0.3458725   0.0000000), wk =   0.0014793
        k(  966) = (   0.2332240   0.3266574   0.0000000), wk =   0.0014793
        k(  967) = (   0.2443299   0.3074422   0.0000000), wk =   0.0014793
        k(  968) = (   0.2554358   0.2882271   0.0000000), wk =   0.0014793
        k(  969) = (   0.2665417   0.2690119   0.0000000), wk =   0.0014793
        k(  970) = (   0.2776476   0.2497968   0.0000000), wk =   0.0014793
        k(  971) = (   0.2887535   0.2305817   0.0000000), wk =   0.0014793
        k(  972) = (   0.2998594   0.2113665   0.0000000), wk =   0.0014793
        k(  973) = (   0.3109653   0.1921514   0.0000000), wk =   0.0014793
        k(  974) = (   0.3220712   0.1729363   0.0000000), wk =   0.0014793
[...]

     occupation numbers 
     1.0000   1.0000   1.0000   1.0000   1.0000   1.0000   1.0000   1.0000
     1.0000   0.0000   0.0000   0.0000   0.0000   0.0000   0.0000   0.0000
     0.0000   0.0000   0.0000   0.0000   0.0000   0.0000   0.0000   0.0000
     0.0000   0.0000   0.0000   0.0000   0.0000   0.0000   0.0000   0.0000
     0.0000   0.0000   0.0000   0.0000   0.0000   0.0000   0.0000   0.0000

          k =-0.2110-0.6341 0.0000 ( 10139 PWs)   bands (ev):

   -21.5341 -21.5044  -9.8565  -9.5894  -7.5470  -7.4542  -6.7343  -6.0873
    -2.6429   0.0564   3.1146   4.5153   5.3621   5.8081   6.5189   7.0466
     7.4372   7.6907   8.1775   8.5459   9.2474   9.5307  10.2552  10.2952
    10.6155  10.8110  10.8952  11.0646  11.6930  11.8026  12.7284  12.7999
    13.4314  13.5491  14.1704  14.4916  14.8691  15.4052  15.5677  15.7783

     occupation numbers 
     1.0000   1.0000   1.0000   1.0000   1.0000   1.0000   1.0000   1.0000
     1.0000   0.0000   0.0000   0.0000   0.0000   0.0000   0.0000   0.0000
     0.0000   0.0000   0.0000   0.0000   0.0000   0.0000   0.0000   0.0000
     0.0000   0.0000   0.0000   0.0000   0.0000   0.0000   0.0000   0.0000
     0.0000   0.0000   0.0000   0.0000   0.0000   0.0000   0.0000   0.0000

          k =-0.1999-0.6533 0.0000 ( 10147 PWs)   bands (ev):

   -21.5350 -21.5051  -9.7854  -9.5180  -7.6590  -7.5592  -6.7420  -6.0888
    -2.6300   0.2117   3.2129   4.2164   5.4169   5.8323   6.4895   7.0978
     7.3842   7.6119   8.1205   8.4992   9.1967   9.4848  10.3402  10.5326
    10.7578  10.8743  11.0708  11.0970  11.9284  12.0863  12.7348  12.9754
    13.5281  13.6474  14.1855  14.4724  14.5893  15.1668  15.3940  15.5691

     occupation numbers 
     1.0000   1.0000   1.0000   1.0000   1.0000   1.0000   1.0000   1.0000
     1.0000   0.0000   0.0000   0.0000   0.0000   0.0000   0.0000   0.0000
     0.0000   0.0000   0.0000   0.0000   0.0000   0.0000   0.0000   0.0000
     0.0000   0.0000   0.0000   0.0000   0.0000   0.0000   0.0000   0.0000
     0.0000   0.0000   0.0000   0.0000   0.0000   0.0000   0.0000   0.0000

          k =-0.1888-0.6725 0.0000 ( 10146 PWs)   bands (ev):

   -21.5358 -21.5058  -9.7143  -9.4462  -7.7664  -7.6613  -6.7494  -6.0902
    -2.6181   0.3684   3.3036   3.9340   5.4674   5.8560   6.4676   7.1236
     7.3882   7.5423   8.0701   8.4552   9.1365   9.4429  10.3587  10.6556
    10.7647  10.9958  11.3267  11.3544  12.1762  12.3737  12.7331  13.0761
    13.4839  13.8602  14.1150  14.3544  14.5540  14.7350  15.1001  15.3844

     occupation numbers 
     1.0000   1.0000   1.0000   1.0000   1.0000   1.0000   1.0000   1.0000
     1.0000   0.0000   0.0000   0.0000   0.0000   0.0000   0.0000   0.0000
     0.0000   0.0000   0.0000   0.0000   0.0000   0.0000   0.0000   0.0000
     0.0000   0.0000   0.0000   0.0000   0.0000   0.0000   0.0000   0.0000
     0.0000   0.0000   0.0000   0.0000   0.0000   0.0000   0.0000   0.0000

          k =-0.1777-0.6917 0.0000 ( 10144 PWs)   bands (ev):

   -21.5364 -21.5063  -9.6481  -9.3789  -7.8627  -7.7539  -6.7557  -6.0914
    -2.6080   0.5163   3.3812   3.6845   5.5103   5.8743   6.4538   7.1141
     7.4498   7.4836   8.0272   8.4159   9.0751   9.4109  10.3606  10.5760
    10.8091  11.2214  11.6584  11.6626  12.3901  12.6030  12.7799  13.1280
    13.4428  13.8357  14.0148  14.2496  14.3469  14.7024  14.7875  15.2377

     occupation numbers 
     1.0000   1.0000   1.0000   1.0000   1.0000   1.0000   1.0000   1.0000
     1.0000   0.0000   0.0000   0.0000   0.0000   0.0000   0.0000   0.0000
     0.0000   0.0000   0.0000   0.0000   0.0000   0.0000   0.0000   0.0000
     0.0000   0.0000   0.0000   0.0000   0.0000   0.0000   0.0000   0.0000
     0.0000   0.0000   0.0000   0.0000   0.0000   0.0000   0.0000   0.0000

          k =-0.1666-0.7110 0.0000 ( 10156 PWs)   bands (ev):

   -21.5368 -21.5067  -9.5929  -9.3225  -7.9404  -7.8295  -6.7605  -6.0923
    -2.6002   0.6418   3.4406   3.4846   5.5427   5.8862   6.4470   7.0936
     7.4385   7.5308   7.9922   8.3842   9.0203   9.3900  10.3529  10.5218
    10.7827  11.5047  11.9786  12.0112  12.4989  12.6790  12.9375  13.1715
    13.4867  13.5896  13.7305  14.0185  14.3157  14.6899  14.7463  15.1043

     occupation numbers 
     1.0000   1.0000   1.0000   1.0000   1.0000   1.0000   1.0000   1.0000
     1.0000   0.0000   0.0000   0.0000   0.0000   0.0000   0.0000   0.0000
     0.0000   0.0000   0.0000   0.0000   0.0000   0.0000   0.0000   0.0000
     0.0000   0.0000   0.0000   0.0000   0.0000   0.0000   0.0000   0.0000
     0.0000   0.0000   0.0000   0.0000   0.0000   0.0000   0.0000   0.0000

          k =-0.1555-0.7302 0.0000 ( 10155 PWs)   bands (ev):

   -21.5370 -21.5069  -9.5557  -9.2841  -7.9916  -7.8799  -6.7635  -6.0927
    -2.5951   0.7281   3.3528   3.4778   5.5628   5.8926   6.4449   7.0779
     7.4098   7.5964   7.9676   8.3636   8.9815   9.3787  10.3429  10.4920
    10.7581  11.7549  12.2584  12.3463  12.5623  12.6498  13.0517  13.1109
    13.3572  13.4227  13.7154  13.9426  14.0605  14.4635  14.8714  15.1130

     occupation numbers 
     1.0000   1.0000   1.0000   1.0000   1.0000   1.0000   1.0000   1.0000
     1.0000   0.0000   0.0000   0.0000   0.0000   0.0000   0.0000   0.0000
     0.0000   0.0000   0.0000   0.0000   0.0000   0.0000   0.0000   0.0000
     0.0000   0.0000   0.0000   0.0000   0.0000   0.0000   0.0000   0.0000
     0.0000   0.0000   0.0000   0.0000   0.0000   0.0000   0.0000   0.0000

          k =-0.1444-0.7494 0.0000 ( 10143 PWs)   bands (ev):

   -21.5370 -21.5069  -9.5421  -9.2700  -8.0102  -7.8982  -6.7644  -6.0928
    -2.5930   0.7593   3.3057   3.4903   5.5696   5.8945   6.4451   7.0724
     7.4003   7.6208   7.9591   8.3567   8.9679   9.3750  10.3382  10.4829
    10.7492  11.8745  12.3688  12.4615  12.6692  12.7791  12.9149  12.9316
    13.2145  13.5011  13.8386  13.8888  14.0191  14.2267  14.8552  15.1439

     occupation numbers 
     1.0000   1.0000   1.0000   1.0000   1.0000   1.0000   1.0000   1.0000
     1.0000   0.0000   0.0000   0.0000   0.0000   0.0000   0.0000   0.0000
     0.0000   0.0000   0.0000   0.0000   0.0000   0.0000   0.0000   0.0000
     0.0000   0.0000   0.0000   0.0000   0.0000   0.0000   0.0000   0.0000
     0.0000   0.0000   0.0000   0.0000   0.0000   0.0000   0.0000   0.0000

          k =-0.1333-0.7686 0.0000 ( 10153 PWs)   bands (ev):

   -21.5368 -21.5067  -9.5544  -9.2828  -7.9935  -7.8818  -6.7632  -6.0925
    -2.5941   0.7286   3.3503   3.4770   5.5630   5.8921   6.4463   7.0782
     7.4109   7.5929   7.9707   8.3646   8.9833   9.3780  10.3425  10.4923
    10.7592  11.7652  12.2667  12.3576  12.5693  12.6491  13.0482  13.1055
    13.3434  13.4241  13.7263  13.9407  14.0476  14.4497  14.8754  15.1168

     occupation numbers 
     1.0000   1.0000   1.0000   1.0000   1.0000   1.0000   1.0000   1.0000
     1.0000   0.0000   0.0000   0.0000   0.0000   0.0000   0.0000   0.0000
     0.0000   0.0000   0.0000   0.0000   0.0000   0.0000   0.0000   0.0000
     0.0000   0.0000   0.0000   0.0000   0.0000   0.0000   0.0000   0.0000
     0.0000   0.0000   0.0000   0.0000   0.0000   0.0000   0.0000   0.0000

          k =-0.1222-0.7878 0.0000 ( 10154 PWs)   bands (ev):

   -21.5363 -21.5062  -9.5905  -9.3202  -7.9440  -7.8331  -6.7599  -6.0918
    -2.5981   0.6427   3.4389   3.4799   5.5431   5.8851   6.4497   7.0940
     7.4405   7.5258   7.9972   8.3861   9.0236   9.3886  10.3525  10.5218
    10.7849  11.5181  11.9912  12.0264  12.5040  12.6789  12.9479  13.1684
    13.4932  13.5767  13.7142  14.0103  14.3062  14.6844  14.7525  15.1027

     occupation numbers 
     1.0000   1.0000   1.0000   1.0000   1.0000   1.0000   1.0000   1.0000
     1.0000   0.0000   0.0000   0.0000   0.0000   0.0000   0.0000   0.0000
     0.0000   0.0000   0.0000   0.0000   0.0000   0.0000   0.0000   0.0000
     0.0000   0.0000   0.0000   0.0000   0.0000   0.0000   0.0000   0.0000
     0.0000   0.0000   0.0000   0.0000   0.0000   0.0000   0.0000   0.0000

          k =-0.1111-0.8070 0.0000 ( 10148 PWs)   bands (ev):

   -21.5356 -21.5056  -9.6448  -9.3759  -7.8677  -7.7589  -6.7548  -6.0907
    -2.6048   0.5171   3.3787   3.6779   5.5111   5.8724   6.4577   7.1140
     7.4455   7.4866   8.0329   8.4187   9.0794   9.4091  10.3608  10.5753
    10.8126  11.2349  11.6735  11.6755  12.3980  12.6104  12.7886  13.1284
    13.4395  13.8261  14.0042  14.2323  14.3521  14.7073  14.7749  15.2288

     occupation numbers 
     1.0000   1.0000   1.0000   1.0000   1.0000   1.0000   1.0000   1.0000
     1.0000   0.0000   0.0000   0.0000   0.0000   0.0000   0.0000   0.0000
     0.0000   0.0000   0.0000   0.0000   0.0000   0.0000   0.0000   0.0000
     0.0000   0.0000   0.0000   0.0000   0.0000   0.0000   0.0000   0.0000
     0.0000   0.0000   0.0000   0.0000   0.0000   0.0000   0.0000   0.0000

          k =-0.1000-0.8263 0.0000 ( 10150 PWs)   bands (ev):

   -21.5348 -21.5048  -9.7105  -9.4427  -7.7725  -7.6674  -6.7481  -6.0893
    -2.6139   0.3688   3.3004   3.9259   5.4686   5.8533   6.4727   7.1217
     7.3867   7.5462   8.0763   8.4588   9.1415   9.4410  10.3599  10.6539
    10.7725  11.0056  11.3407  11.3665  12.1863  12.3845  12.7391  13.0782
    13.4772  13.8683  14.1073  14.3443  14.5528  14.7200  15.0872  15.3793

     occupation numbers 
     1.0000   1.0000   1.0000   1.0000   1.0000   1.0000   1.0000   1.0000
     1.0000   0.0000   0.0000   0.0000   0.0000   0.0000   0.0000   0.0000
     0.0000   0.0000   0.0000   0.0000   0.0000   0.0000   0.0000   0.0000
     0.0000   0.0000   0.0000   0.0000   0.0000   0.0000   0.0000   0.0000
     0.0000   0.0000   0.0000   0.0000   0.0000   0.0000   0.0000   0.0000

          k =-0.0888-0.8455 0.0000 ( 10141 PWs)   bands (ev):

   -21.5338 -21.5039  -9.7812  -9.5142  -7.6660  -7.5662  -6.7405  -6.0876
    -2.6248   0.2117   3.2090   4.2071   5.4184   5.8285   6.4956   7.0941
     7.3862   7.6166   8.1270   8.5034   9.2021   9.4834  10.3426  10.5441
    10.7553  10.8836  11.0814  11.1067  11.9382  12.0973  12.7400  12.9774
    13.5238  13.6598  14.1839  14.4688  14.5760  15.1475  15.3889  15.5658

     occupation numbers 
     1.0000   1.0000   1.0000   1.0000   1.0000   1.0000   1.0000   1.0000
     1.0000   0.0000   0.0000   0.0000   0.0000   0.0000   0.0000   0.0000
     0.0000   0.0000   0.0000   0.0000   0.0000   0.0000   0.0000   0.0000
     0.0000   0.0000   0.0000   0.0000   0.0000   0.0000   0.0000   0.0000
     0.0000   0.0000   0.0000   0.0000   0.0000   0.0000   0.0000   0.0000

          k =-0.0777-0.8647 0.0000 ( 10143 PWs)   bands (ev):

   -21.5327 -21.5030  -9.8521  -9.5854  -7.5547  -7.4620  -6.7325  -6.0859
    -2.6368   0.0557   3.1101   4.5051   5.3641   5.8031   6.5259   7.0429
     7.4412   7.6961   8.1843   8.5506   9.2528   9.5303  10.2670  10.2992
    10.6264  10.8207  10.8906  11.0709  11.7016  11.8132  12.7337  12.8009
    13.4434  13.5493  14.1758  14.4802  14.8569  15.4106  15.5603  15.7668

     occupation numbers 
     1.0000   1.0000   1.0000   1.0000   1.0000   1.0000   1.0000   1.0000
     1.0000   0.0000   0.0000   0.0000   0.0000   0.0000   0.0000   0.0000
     0.0000   0.0000   0.0000   0.0000   0.0000   0.0000   0.0000   0.0000
     0.0000   0.0000   0.0000   0.0000   0.0000   0.0000   0.0000   0.0000
     0.0000   0.0000   0.0000   0.0000   0.0000   0.0000   0.0000   0.0000

          k =-0.0666-0.8839 0.0000 ( 10130 PWs)   bands (ev):

   -21.5316 -21.5020  -9.9192  -9.6525  -7.4445  -7.3603  -6.7248  -6.0841
    -2.6491  -0.0918   3.0096   4.7979   5.3092   5.7925   6.5618   6.9946
     7.5292   7.7831   8.2458   8.5999   9.2799   9.5688  10.0033  10.2188
    10.3499  10.6406  11.0172  11.0320  11.4974  11.5838  12.5854  12.6724
    13.3012  13.5243  14.0662  14.6836  15.1172  15.2434  15.6121  15.9874

     occupation numbers 
     1.0000   1.0000   1.0000   1.0000   1.0000   1.0000   1.0000   1.0000
     1.0000   0.0000   0.0000   0.0000   0.0000   0.0000   0.0000   0.0000
     0.0000   0.0000   0.0000   0.0000   0.0000   0.0000   0.0000   0.0000
     0.0000   0.0000   0.0000   0.0000   0.0000   0.0000   0.0000   0.0000
     0.0000   0.0000   0.0000   0.0000   0.0000   0.0000   0.0000   0.0000

          k =-0.0555-0.9031 0.0000 ( 10125 PWs)   bands (ev):

   -21.5306 -21.5011  -9.9798  -9.7129  -7.3404  -7.2657  -6.7182  -6.0823
    -2.6610  -0.2253   2.9131   5.0461   5.2571   5.8325   6.6004   6.9590
     7.6391   7.8764   8.3054   8.6508   9.2593   9.5755   9.7667  10.1124
    10.1156  10.5163  10.8908  11.1506  11.3467  11.4605  12.3785  12.5356
    13.2584  13.4251  14.0027  14.9380  14.9544  15.4560  15.5425  16.0876

     occupation numbers 
     1.0000   1.0000   1.0000   1.0000   1.0000   1.0000   1.0000   1.0000
     1.0000   0.0000   0.0000   0.0000   0.0000   0.0000   0.0000   0.0000
     0.0000   0.0000   0.0000   0.0000   0.0000   0.0000   0.0000   0.0000
     0.0000   0.0000   0.0000   0.0000   0.0000   0.0000   0.0000   0.0000
     0.0000   0.0000   0.0000   0.0000   0.0000   0.0000   0.0000   0.0000

          k =-0.0444-0.9223 0.0000 ( 10137 PWs)   bands (ev):

   -21.5297 -21.5002 -10.0317  -9.7646  -7.2470  -7.1824  -6.7132  -6.0808
    -2.6718  -0.3406   2.8259   5.1948   5.2106   5.9753   6.6387   6.9366
     7.7657   7.9737   8.3490   8.7022   9.1771   9.5256   9.5451   9.9633
    10.0176  10.4422  10.6812  11.1756  11.3539  11.3970  12.2257  12.3606
    13.2707  13.2782  13.9957  14.7271  15.1453  15.5336  15.7191  16.1954

     occupation numbers 
     1.0000   1.0000   1.0000   1.0000   1.0000   1.0000   1.0000   1.0000
     1.0000   0.0000   0.0000   0.0000   0.0000   0.0000   0.0000   0.0000
     0.0000   0.0000   0.0000   0.0000   0.0000   0.0000   0.0000   0.0000
     0.0000   0.0000   0.0000   0.0000   0.0000   0.0000   0.0000   0.0000
     0.0000   0.0000   0.0000   0.0000   0.0000   0.0000   0.0000   0.0000

          k =-0.0333-0.9415 0.0000 ( 10132 PWs)   bands (ev):

   -21.5289 -21.4995 -10.0734  -9.8060  -7.1682  -7.1139  -6.7102  -6.0794
    -2.6808  -0.4341   2.7528   5.1720   5.2440   6.2151   6.6731   6.9242
     7.9018   8.0715   8.3518   8.7499   9.0712   9.3281   9.4286   9.8792
     9.9423  10.4102  10.4901  11.1178  11.3165  11.4788  12.1587  12.1891
    13.1006  13.3198  14.0147  14.5267  15.1849  15.7024  15.9264  16.3228

     occupation numbers 
     1.0000   1.0000   1.0000   1.0000   1.0000   1.0000   1.0000   1.0000
     1.0000   0.0000   0.0000   0.0000   0.0000   0.0000   0.0000   0.0000
     0.0000   0.0000   0.0000   0.0000   0.0000   0.0000   0.0000   0.0000
     0.0000   0.0000   0.0000   0.0000   0.0000   0.0000   0.0000   0.0000
     0.0000   0.0000   0.0000   0.0000   0.0000   0.0000   0.0000   0.0000

          k =-0.0222-0.9608 0.0000 ( 10140 PWs)   bands (ev):

   -21.5283 -21.4990 -10.1040  -9.8363  -7.1081  -7.0628  -6.7091  -6.0784
    -2.6875  -0.5030   2.6976   5.1432   5.2471   6.4834   6.7006   6.9175
     8.0178   8.1623   8.3175   8.7853   8.9489   9.1842   9.3274   9.7914
     9.8723  10.3787  10.4111  11.0840  11.2124  11.5900  12.0482  12.1683
    12.9419  13.3604  14.0391  14.3693  15.1481  15.9407  16.0509  16.4671

     occupation numbers 
     1.0000   1.0000   1.0000   1.0000   1.0000   1.0000   1.0000   1.0000
     1.0000   0.0000   0.0000   0.0000   0.0000   0.0000   0.0000   0.0000
     0.0000   0.0000   0.0000   0.0000   0.0000   0.0000   0.0000   0.0000
     0.0000   0.0000   0.0000   0.0000   0.0000   0.0000   0.0000   0.0000
     0.0000   0.0000   0.0000   0.0000   0.0000   0.0000   0.0000   0.0000

          k =-0.0111-0.9800 0.0000 ( 10148 PWs)   bands (ev):

   -21.5279 -21.4986 -10.1226  -9.8547  -7.0700  -7.0313  -6.7091  -6.0778
    -2.6917  -0.5453   2.6633   5.1255   5.2396   6.7094   6.7182   6.9117
     8.0210   8.2320   8.3735   8.7594   8.8008   9.1794   9.2588   9.6846
     9.8163  10.3486  10.4240  11.0716  11.1225  11.6599  11.9592  12.2117
    12.8197  13.3880  14.0578  14.2682  15.1143  16.1079  16.1446  16.4885

     occupation numbers 
     1.0000   1.0000   1.0000   1.0000   1.0000   1.0000   1.0000   1.0000
     1.0000   0.0000   0.0000   0.0000   0.0000   0.0000   0.0000   0.0000
     0.0000   0.0000   0.0000   0.0000   0.0000   0.0000   0.0000   0.0000
     0.0000   0.0000   0.0000   0.0000   0.0000   0.0000   0.0000   0.0000
     0.0000   0.0000   0.0000   0.0000   0.0000   0.0000   0.0000   0.0000

          k =-0.5775 0.0000 0.0000 ( 10142 PWs)   bands (ev):

   -21.5278 -21.4985 -10.1288  -9.8609  -7.0570  -7.0206  -6.7093  -6.0776
    -2.6931  -0.5596   2.6516   5.1195   5.2358   6.7243   6.8085   6.9042
     7.9839   8.2594   8.4996   8.5996   8.8025   9.2017   9.2364   9.6299
     9.7943  10.3478  10.4306  11.0695  11.0866  11.6811  11.9311  12.2364
    12.7704  13.3975  14.0647  14.2334  15.1018  16.1235  16.2432  16.4403

     occupation numbers 
     1.0000   1.0000   1.0000   1.0000   1.0000   1.0000   1.0000   1.0000
     1.0000   0.0000   0.0000   0.0000   0.0000   0.0000   0.0000   0.0000
     0.0000   0.0000   0.0000   0.0000   0.0000   0.0000   0.0000   0.0000
     0.0000   0.0000   0.0000   0.0000   0.0000   0.0000   0.0000   0.0000
     0.0000   0.0000   0.0000   0.0000   0.0000   0.0000   0.0000   0.0000

     the Fermi energy is    -0.6911 ev
     (compare with:    -1.9771 eV, computed in scf)

     Writing all to output data dir ./work/Al2O2.save/
 
     init_run     :      0.23s CPU      0.29s WALL (       1 calls)
     electrons    :   1948.67s CPU   2294.44s WALL (       1 calls)

     Called by init_run:
     wfcinit      :      0.00s CPU      0.00s WALL (       1 calls)
     wfcinit:atom :      0.18s CPU      0.22s WALL (    1354 calls)
     wfcinit:wfcr :     35.80s CPU     45.11s WALL (    1354 calls)
     potinit      :      0.04s CPU      0.05s WALL (       1 calls)
     hinit0       :      0.07s CPU      0.10s WALL (       1 calls)

     Called by electrons:
     c_bands      :   1948.58s CPU   2294.34s WALL (       1 calls)
     v_of_rho     :      0.00s CPU      0.01s WALL (       1 calls)
     v_h          :      0.00s CPU      0.00s WALL (       1 calls)
     v_xc         :      0.00s CPU      0.01s WALL (       1 calls)
     newd         :      0.02s CPU      0.04s WALL (       1 calls)
     PAW_pot      :      0.04s CPU      0.05s WALL (       1 calls)

     Called by c_bands:
     init_us_2    :      0.51s CPU      0.63s WALL (    1354 calls)
     init_us_2:cp :      0.50s CPU      0.62s WALL (    1354 calls)
     cegterg      :   1906.23s CPU   2241.90s WALL (    5044 calls)

     Called by sum_band:

     Called by *egterg:
     cdiaghg      :    178.88s CPU    186.85s WALL (   91461 calls)
     cegterg:over :    144.76s CPU    159.93s WALL (   90107 calls)
     cegterg:upda :     86.94s CPU     88.88s WALL (   90107 calls)
     cegterg:last :    244.68s CPU    245.71s WALL (   49027 calls)
     h_psi        :   1181.03s CPU   1493.56s WALL (   96505 calls)
     s_psi        :     57.43s CPU     61.26s WALL (   96505 calls)
     g_psi        :      5.05s CPU      5.17s WALL (   90107 calls)

     Called by h_psi:
     h_psi:calbec :     60.60s CPU     75.06s WALL (   96505 calls)
     vloc_psi     :   1033.63s CPU   1320.89s WALL (   96505 calls)
     add_vuspsi   :     75.50s CPU     85.97s WALL (   96505 calls)

     General routines
     calbec       :     60.38s CPU     74.82s WALL (   96505 calls)
     fft          :      0.00s CPU      0.01s WALL (      12 calls)
     fftw         :    979.48s CPU   1254.01s WALL ( 4018548 calls)
     davcio       :      0.82s CPU      1.17s WALL (    2708 calls)
 
     Parallel routines

     PAW routines
     PAW_pot      :      0.04s CPU      0.05s WALL (       1 calls)
 
     PWSCF        :  32m31.62s CPU  38m24.53s WALL

 
   This run was terminated on:  13:47: 5  22Jun2023            

=------------------------------------------------------------------------------=
   JOB DONE.
=------------------------------------------------------------------------------=
