
     Program PWSCF v.7.1 starts on 22Jun2023 at 13: 7:57 

     This program is part of the open-source Quantum ESPRESSO suite
     for quantum simulation of materials; please cite
         "P. Giannozzi et al., J. Phys.:Condens. Matter 21 395502 (2009);
         "P. Giannozzi et al., J. Phys.:Condens. Matter 29 465901 (2017);
         "P. Giannozzi et al., J. Chem. Phys. 152 154105 (2020);
          URL http://www.quantum-espresso.org", 
     in publications or presentations arising from this work. More details at
     http://www.quantum-espresso.org/quote

     Parallel version (MPI), running on    10 processors

     MPI processes distributed on     1 nodes
     43655 MiB available memory on the printing compute node when the environment starts
 
     Waiting for input...
     Reading input from standard input

     Current dimensions of program PWSCF are:
     Max number of different atomic species (ntypx) = 10
     Max number of k-points (npk) =  40000
     Max angular momentum in pseudopotentials (lmaxx) =  4
     Message from routine volume:
     axis vectors are left-handed
     file Al.pbe-n-kjpaw_psl.1.0.0.UPF: wavefunction(s)  3S 3P renormalized
     file O.pbe-n-kjpaw_psl.1.0.0.UPF: wavefunction(s)  2S 2P renormalized
     Message from routine setup:
     using ibrav=0 with symmetry is DISCOURAGED, use correct ibrav instead
 
     R & G space division:  proc/nbgrp/npool/nimage =      10
     Subspace diagonalization in iterative solution of the eigenvalue problem:
     a serial algorithm will be used

 
     Parallelization info
     --------------------
     sticks:   dense  smooth     PW     G-vecs:    dense   smooth      PW
     Min          51      51     16                 8077     8077    1456
     Max          52      52     17                 8112     8112    1491
     Sum         511     511    163                80843    80843   14691
 
     Using Slab Decomposition
 


     bravais-lattice index     =            0
     lattice parameter (alat)  =       5.6114  a.u.
     unit-cell volume          =    1288.9767 (a.u.)^3
     number of atoms/cell      =            4
     number of atomic types    =            2
     number of electrons       =        18.00
     number of Kohn-Sham states=           40
     kinetic-energy cutoff     =      60.0000  Ry
     charge density cutoff     =     240.0000  Ry
     scf convergence threshold =      1.0E-08
     mixing beta               =       0.5000
     number of iterations used =            8  plain     mixing
     Exchange-correlation= SLA  PW   PBX  PBC
                           (   1   4   3   4   0   0   0)

     celldm(1)=   5.611386  celldm(2)=   0.000000  celldm(3)=   0.000000
     celldm(4)=   0.000000  celldm(5)=   0.000000  celldm(6)=   0.000000

     crystal axes: (cart. coord. in units of alat)
               a(1) = (   0.865790   0.500407   0.000000 )  
               a(2) = (   0.865790  -0.500407   0.000000 )  
               a(3) = (   0.000000   0.000000   8.419160 )  

     reciprocal axes: (cart. coord. in units 2 pi/alat)
               b(1) = (  0.577507  0.999187  0.000000 )  
               b(2) = (  0.577507 -0.999187  0.000000 )  
               b(3) = (  0.000000  0.000000  0.118777 )  


     PseudoPot. # 1 for Al read from file:
     /home/mainadmin/research/danu/pseudo/Al.pbe-n-kjpaw_psl.1.0.0.UPF
     MD5 check sum: 502b6b27b9c6270cab5dd1084b96fa6d
     Pseudo is Projector augmented-wave + core cor, Zval =  3.0
     Generated using &quot;atomic&quot; code by A. Dal Corso  v.6.3
     Shape of augmentation charge: PSQ
     Using radial grid of 1135 points,  6 beta functions with: 
                l(1) =   0
                l(2) =   0
                l(3) =   1
                l(4) =   1
                l(5) =   2
                l(6) =   2
     Q(r) pseudized with 0 coefficients 


     PseudoPot. # 2 for O  read from file:
     /home/mainadmin/research/danu/pseudo/O.pbe-n-kjpaw_psl.1.0.0.UPF
     MD5 check sum: e99d9cef9b487d1ca56f5b95ecd0fd7a
     Pseudo is Projector augmented-wave + core cor, Zval =  6.0
     Generated using &quot;atomic&quot; code by A. Dal Corso  v.6.3
     Shape of augmentation charge: PSQ
     Using radial grid of 1095 points,  4 beta functions with: 
                l(1) =   0
                l(2) =   0
                l(3) =   1
                l(4) =   1
     Q(r) pseudized with 0 coefficients 


     atomic species   valence    mass     pseudopotential
        Al             3.00    26.98100     Al( 1.00)
        O              6.00    15.99900     O ( 1.00)

      2 Sym. Ops. (no inversion) found


                                    s                        frac. trans.

      isym =  1     identity                                     

 cryst.   s( 1) = (     1          0          0      )
                  (     0          1          0      )
                  (     0          0          1      )

 cart.    s( 1) = (  1.0000000  0.0000000  0.0000000 )
                  (  0.0000000  1.0000000  0.0000000 )
                  (  0.0000000  0.0000000  1.0000000 )


      isym =  2     inv. 180 deg rotation - cart. axis [0,1,0]   

 cryst.   s( 2) = (     0          1          0      )
                  (     1          0          0      )
                  (     0          0          1      )

 cart.    s( 2) = (  1.0000000  0.0000000  0.0000000 )
                  (  0.0000000 -1.0000000  0.0000000 )
                  (  0.0000000  0.0000000  1.0000000 )


   Cartesian axes

     site n.     atom                  positions (alat units)
         1           O   tau(   1) = (   1.1545548   0.0000000   3.5560643  )
         2           Al  tau(   2) = (   0.5770825   0.0000000   3.7791201  )
         3           Al  tau(   3) = (   0.5770294   0.0000000   4.6620761  )
         4           O   tau(   4) = (   1.1544952   0.0000000   4.8850991  )

   Crystallographic axes

     site n.     atom                  positions (cryst. coord.)
         1           O   tau(   1) = (  0.6667634  0.6667634  0.4223776  )
         2           Al  tau(   2) = (  0.3332692  0.3332692  0.4488714  )
         3           Al  tau(   3) = (  0.3332385  0.3332385  0.5537460  )
         4           O   tau(   4) = (  0.6667290  0.6667290  0.5802360  )

     number of k points=    49
                       cart. coord. in units 2pi/alat
        k(    1) = (   0.0000000   0.0000000   0.0000000), wk =   0.0118343
        k(    2) = (   0.0444236  -0.0768606   0.0000000), wk =   0.0473373
        k(    3) = (   0.0888472  -0.1537211   0.0000000), wk =   0.0473373
        k(    4) = (   0.1332708  -0.2305817   0.0000000), wk =   0.0473373
        k(    5) = (   0.1776944  -0.3074422   0.0000000), wk =   0.0473373
        k(    6) = (   0.2221181  -0.3843028   0.0000000), wk =   0.0473373
        k(    7) = (   0.2665417  -0.4611633   0.0000000), wk =   0.0473373
        k(    8) = (   0.0888472   0.0000000   0.0000000), wk =   0.0236686
        k(    9) = (   0.1332708  -0.0768606   0.0000000), wk =   0.0473373
        k(   10) = (   0.1776944  -0.1537211   0.0000000), wk =   0.0473373
        k(   11) = (   0.2221181  -0.2305817   0.0000000), wk =   0.0473373
        k(   12) = (   0.2665417  -0.3074422   0.0000000), wk =   0.0473373
        k(   13) = (   0.3109653  -0.3843028   0.0000000), wk =   0.0473373
        k(   14) = (  -0.2221181   0.5380239   0.0000000), wk =   0.0473373
        k(   15) = (  -0.1776944   0.4611633   0.0000000), wk =   0.0473373
        k(   16) = (  -0.1332708   0.3843028   0.0000000), wk =   0.0473373
        k(   17) = (  -0.0888472   0.3074422   0.0000000), wk =   0.0473373
        k(   18) = (  -0.0444236   0.2305817   0.0000000), wk =   0.0473373
        k(   19) = (   0.0000000   0.1537211   0.0000000), wk =   0.0236686
        k(   20) = (   0.1776944   0.0000000   0.0000000), wk =   0.0236686
        k(   21) = (   0.2221181  -0.0768606   0.0000000), wk =   0.0473373
        k(   22) = (   0.2665417  -0.1537211   0.0000000), wk =   0.0473373
        k(   23) = (   0.3109653  -0.2305817   0.0000000), wk =   0.0473373
        k(   24) = (   0.3553889  -0.3074422   0.0000000), wk =   0.0473373
        k(   25) = (  -0.1776944   0.6148844   0.0000000), wk =   0.0473373
        k(   26) = (  -0.1332708   0.5380239   0.0000000), wk =   0.0473373
        k(   27) = (  -0.0888472   0.4611633   0.0000000), wk =   0.0473373
        k(   28) = (  -0.0444236   0.3843028   0.0000000), wk =   0.0473373
        k(   29) = (   0.0000000   0.3074422   0.0000000), wk =   0.0236686
        k(   30) = (   0.2665417   0.0000000   0.0000000), wk =   0.0236686
        k(   31) = (   0.3109653  -0.0768606   0.0000000), wk =   0.0473373
        k(   32) = (   0.3553889  -0.1537211   0.0000000), wk =   0.0473373
        k(   33) = (   0.3998125  -0.2305817   0.0000000), wk =   0.0473373
        k(   34) = (  -0.1332708   0.6917450   0.0000000), wk =   0.0473373
        k(   35) = (  -0.0888472   0.6148844   0.0000000), wk =   0.0473373
        k(   36) = (  -0.0444236   0.5380239   0.0000000), wk =   0.0473373
        k(   37) = (   0.0000000   0.4611633   0.0000000), wk =   0.0236686
        k(   38) = (   0.3553889   0.0000000   0.0000000), wk =   0.0236686
        k(   39) = (   0.3998125  -0.0768606   0.0000000), wk =   0.0473373
        k(   40) = (   0.4442361  -0.1537211   0.0000000), wk =   0.0473373
        k(   41) = (  -0.0888472   0.7686056   0.0000000), wk =   0.0473373
        k(   42) = (  -0.0444236   0.6917450   0.0000000), wk =   0.0473373
        k(   43) = (   0.0000000   0.6148844   0.0000000), wk =   0.0236686
        k(   44) = (   0.4442361   0.0000000   0.0000000), wk =   0.0236686
        k(   45) = (   0.4886597  -0.0768606   0.0000000), wk =   0.0473373
        k(   46) = (  -0.0444236   0.8454661   0.0000000), wk =   0.0473373
        k(   47) = (   0.0000000   0.7686056   0.0000000), wk =   0.0236686
        k(   48) = (   0.5330833   0.0000000   0.0000000), wk =   0.0236686
        k(   49) = (   0.0000000   0.9223267   0.0000000), wk =   0.0236686

                       cryst. coord.
        k(    1) = (   0.0000000   0.0000000   0.0000000), wk =   0.0118343
        k(    2) = (   0.0000000   0.0769231   0.0000000), wk =   0.0473373
        k(    3) = (   0.0000000   0.1538462   0.0000000), wk =   0.0473373
        k(    4) = (   0.0000000   0.2307692   0.0000000), wk =   0.0473373
        k(    5) = (   0.0000000   0.3076923   0.0000000), wk =   0.0473373
        k(    6) = (   0.0000000   0.3846154   0.0000000), wk =   0.0473373
        k(    7) = (   0.0000000   0.4615385   0.0000000), wk =   0.0473373
        k(    8) = (   0.0769231   0.0769231   0.0000000), wk =   0.0236686
        k(    9) = (   0.0769231   0.1538462   0.0000000), wk =   0.0473373
        k(   10) = (   0.0769231   0.2307692   0.0000000), wk =   0.0473373
        k(   11) = (   0.0769231   0.3076923   0.0000000), wk =   0.0473373
        k(   12) = (   0.0769231   0.3846154   0.0000000), wk =   0.0473373
        k(   13) = (   0.0769231   0.4615385   0.0000000), wk =   0.0473373
        k(   14) = (   0.0769231  -0.4615385   0.0000000), wk =   0.0473373
        k(   15) = (   0.0769231  -0.3846154   0.0000000), wk =   0.0473373
        k(   16) = (   0.0769231  -0.3076923   0.0000000), wk =   0.0473373
        k(   17) = (   0.0769231  -0.2307692   0.0000000), wk =   0.0473373
        k(   18) = (   0.0769231  -0.1538462   0.0000000), wk =   0.0473373
        k(   19) = (   0.0769231  -0.0769231   0.0000000), wk =   0.0236686
        k(   20) = (   0.1538462   0.1538462   0.0000000), wk =   0.0236686
        k(   21) = (   0.1538462   0.2307692   0.0000000), wk =   0.0473373
        k(   22) = (   0.1538462   0.3076923   0.0000000), wk =   0.0473373
        k(   23) = (   0.1538462   0.3846154   0.0000000), wk =   0.0473373
        k(   24) = (   0.1538462   0.4615385   0.0000000), wk =   0.0473373
        k(   25) = (   0.1538462  -0.4615385   0.0000000), wk =   0.0473373
        k(   26) = (   0.1538462  -0.3846154   0.0000000), wk =   0.0473373
        k(   27) = (   0.1538462  -0.3076923   0.0000000), wk =   0.0473373
        k(   28) = (   0.1538462  -0.2307692   0.0000000), wk =   0.0473373
        k(   29) = (   0.1538462  -0.1538462   0.0000000), wk =   0.0236686
        k(   30) = (   0.2307692   0.2307692   0.0000000), wk =   0.0236686
        k(   31) = (   0.2307692   0.3076923   0.0000000), wk =   0.0473373
        k(   32) = (   0.2307692   0.3846154   0.0000000), wk =   0.0473373
        k(   33) = (   0.2307692   0.4615385   0.0000000), wk =   0.0473373
        k(   34) = (   0.2307692  -0.4615385   0.0000000), wk =   0.0473373
        k(   35) = (   0.2307692  -0.3846154   0.0000000), wk =   0.0473373
        k(   36) = (   0.2307692  -0.3076923   0.0000000), wk =   0.0473373
        k(   37) = (   0.2307692  -0.2307692   0.0000000), wk =   0.0236686
        k(   38) = (   0.3076923   0.3076923   0.0000000), wk =   0.0236686
        k(   39) = (   0.3076923   0.3846154   0.0000000), wk =   0.0473373
        k(   40) = (   0.3076923   0.4615385   0.0000000), wk =   0.0473373
        k(   41) = (   0.3076923  -0.4615385   0.0000000), wk =   0.0473373
        k(   42) = (   0.3076923  -0.3846154   0.0000000), wk =   0.0473373
        k(   43) = (   0.3076923  -0.3076923   0.0000000), wk =   0.0236686
        k(   44) = (   0.3846154   0.3846154   0.0000000), wk =   0.0236686
        k(   45) = (   0.3846154   0.4615385   0.0000000), wk =   0.0473373
        k(   46) = (   0.3846154  -0.4615385   0.0000000), wk =   0.0473373
        k(   47) = (   0.3846154  -0.3846154   0.0000000), wk =   0.0236686
        k(   48) = (   0.4615385   0.4615385   0.0000000), wk =   0.0236686
        k(   49) = (   0.4615385  -0.4615385   0.0000000), wk =   0.0236686

     Dense  grid:    80843 G-vectors     FFT dimensions: (  27,  27, 240)

     Dynamical RAM for                 wfc:       0.62 MB

     Dynamical RAM for     wfc (w. buffer):      30.85 MB

     Dynamical RAM for           str. fact:       0.25 MB

     Dynamical RAM for           local pot:       0.00 MB

     Dynamical RAM for          nlocal pot:       0.80 MB

     Dynamical RAM for                qrad:       2.49 MB

     Dynamical RAM for          rho,v,vnew:       0.77 MB

     Dynamical RAM for               rhoin:       0.26 MB

     Dynamical RAM for            rho*nmix:       1.98 MB

     Dynamical RAM for           G-vectors:       0.53 MB

     Dynamical RAM for          h,s,v(r/c):       0.29 MB

     Dynamical RAM for          <psi|beta>:       0.03 MB

     Dynamical RAM for                 psi:       1.23 MB

     Dynamical RAM for                hpsi:       1.23 MB

     Dynamical RAM for                spsi:       1.23 MB

     Dynamical RAM for      wfcinit/wfcrot:       1.27 MB

     Dynamical RAM for           addusdens:      23.27 MB

     Estimated static dynamical RAM per process >      36.99 MB

     Estimated max dynamical RAM per process >      62.24 MB

     Estimated total dynamical RAM >     622.36 MB

     Check: negative core charge=   -0.000003

     Initial potential from superposition of free atoms

     starting charge      17.9954, renormalised to      18.0000

     negative rho (up, down):  1.409E-03 0.000E+00
     Starting wfcs are   16 randomized atomic wfcs +   24 random wfcs
     Checking if some PAW data can be deallocated... 
       PAW data deallocated on    5 nodes for type:  1
       PAW data deallocated on    5 nodes for type:  2

     total cpu time spent up to now is        1.3 secs

     Self-consistent Calculation

     iteration #  1     ecut=    60.00 Ry     beta= 0.50
     Davidson diagonalization with overlap

---- Real-time Memory Report at c_bands before calling an iterative solver
           128 MiB given to the printing process from OS
             0 MiB allocation reported by mallinfo(arena+hblkhd)
         42984 MiB available memory on the node where the printing process lives
------------------
     ethr =  1.00E-02,  avg # of iterations =  8.8

     negative rho (up, down):  1.496E-03 0.000E+00

     total cpu time spent up to now is        9.4 secs

     total energy              =    -162.38936771 Ry
     estimated scf accuracy    <       0.90025450 Ry

     iteration #  2     ecut=    60.00 Ry     beta= 0.50
     Davidson diagonalization with overlap

---- Real-time Memory Report at c_bands before calling an iterative solver
           173 MiB given to the printing process from OS
             0 MiB allocation reported by mallinfo(arena+hblkhd)
         42563 MiB available memory on the node where the printing process lives
------------------
     ethr =  5.00E-03,  avg # of iterations =  1.9

     negative rho (up, down):  1.349E-03 0.000E+00

     total cpu time spent up to now is       12.4 secs

     total energy              =    -162.61324985 Ry
     estimated scf accuracy    <       0.33840113 Ry

     iteration #  3     ecut=    60.00 Ry     beta= 0.50
     Davidson diagonalization with overlap

---- Real-time Memory Report at c_bands before calling an iterative solver
           173 MiB given to the printing process from OS
             0 MiB allocation reported by mallinfo(arena+hblkhd)
         42559 MiB available memory on the node where the printing process lives
------------------
     ethr =  1.88E-03,  avg # of iterations =  2.0

     negative rho (up, down):  1.438E-03 0.000E+00

     total cpu time spent up to now is       15.4 secs

     total energy              =    -162.70141092 Ry
     estimated scf accuracy    <       0.01581975 Ry

     iteration #  4     ecut=    60.00 Ry     beta= 0.50
     Davidson diagonalization with overlap

---- Real-time Memory Report at c_bands before calling an iterative solver
           174 MiB given to the printing process from OS
             0 MiB allocation reported by mallinfo(arena+hblkhd)
         42556 MiB available memory on the node where the printing process lives
------------------
     ethr =  8.79E-05,  avg # of iterations =  7.9

     negative rho (up, down):  1.945E-03 0.000E+00

     total cpu time spent up to now is       20.1 secs

     total energy              =    -162.71076494 Ry
     estimated scf accuracy    <       0.00379344 Ry

     iteration #  5     ecut=    60.00 Ry     beta= 0.50
     Davidson diagonalization with overlap

---- Real-time Memory Report at c_bands before calling an iterative solver
           174 MiB given to the printing process from OS
             0 MiB allocation reported by mallinfo(arena+hblkhd)
         42553 MiB available memory on the node where the printing process lives
------------------
     ethr =  2.11E-05,  avg # of iterations =  4.2

     negative rho (up, down):  1.863E-03 0.000E+00

     total cpu time spent up to now is       23.6 secs

     total energy              =    -162.71111781 Ry
     estimated scf accuracy    <       0.00038557 Ry

     iteration #  6     ecut=    60.00 Ry     beta= 0.50
     Davidson diagonalization with overlap

---- Real-time Memory Report at c_bands before calling an iterative solver
           174 MiB given to the printing process from OS
             0 MiB allocation reported by mallinfo(arena+hblkhd)
         42552 MiB available memory on the node where the printing process lives
------------------
     ethr =  2.14E-06,  avg # of iterations =  7.4

     negative rho (up, down):  1.867E-03 0.000E+00

     total cpu time spent up to now is       27.8 secs

     total energy              =    -162.71120444 Ry
     estimated scf accuracy    <       0.00001312 Ry

     iteration #  7     ecut=    60.00 Ry     beta= 0.50
     Davidson diagonalization with overlap

---- Real-time Memory Report at c_bands before calling an iterative solver
           175 MiB given to the printing process from OS
             0 MiB allocation reported by mallinfo(arena+hblkhd)
         42548 MiB available memory on the node where the printing process lives
------------------
     ethr =  7.29E-08,  avg # of iterations =  3.9

     negative rho (up, down):  1.877E-03 0.000E+00

     total cpu time spent up to now is       31.3 secs

     total energy              =    -162.71121920 Ry
     estimated scf accuracy    <       0.00000614 Ry

     iteration #  8     ecut=    60.00 Ry     beta= 0.50
     Davidson diagonalization with overlap

---- Real-time Memory Report at c_bands before calling an iterative solver
           175 MiB given to the printing process from OS
             0 MiB allocation reported by mallinfo(arena+hblkhd)
         42546 MiB available memory on the node where the printing process lives
------------------
     ethr =  3.41E-08,  avg # of iterations =  1.7

     negative rho (up, down):  1.882E-03 0.000E+00

     total cpu time spent up to now is       34.3 secs

     total energy              =    -162.71121870 Ry
     estimated scf accuracy    <       0.00000377 Ry

     iteration #  9     ecut=    60.00 Ry     beta= 0.50
     Davidson diagonalization with overlap

---- Real-time Memory Report at c_bands before calling an iterative solver
           175 MiB given to the printing process from OS
             0 MiB allocation reported by mallinfo(arena+hblkhd)
         42542 MiB available memory on the node where the printing process lives
------------------
     ethr =  2.09E-08,  avg # of iterations =  1.4

     negative rho (up, down):  1.882E-03 0.000E+00

     total cpu time spent up to now is       37.2 secs

     total energy              =    -162.71121918 Ry
     estimated scf accuracy    <       0.00000013 Ry

     iteration # 10     ecut=    60.00 Ry     beta= 0.50
     Davidson diagonalization with overlap

---- Real-time Memory Report at c_bands before calling an iterative solver
           175 MiB given to the printing process from OS
             0 MiB allocation reported by mallinfo(arena+hblkhd)
         42540 MiB available memory on the node where the printing process lives
------------------
     ethr =  7.23E-10,  avg # of iterations =  4.0

     negative rho (up, down):  1.883E-03 0.000E+00

     total cpu time spent up to now is       40.7 secs

     End of self-consistent calculation

          k = 0.0000 0.0000 0.0000 (  9961 PWs)   bands (ev):

   -22.4282 -22.3638  -9.3489  -7.2416  -6.3903  -6.3825  -6.3696  -6.3619
    -4.2513  -0.1785   1.9805   2.7855   2.8121   3.4213   3.6940   4.6502
     5.2832   6.6551   6.6772   8.3297   8.6431   8.6633   9.2296   9.9894
    10.0106  11.1340  11.2441  12.1954  12.2218  13.1034  14.6561  15.6313
    15.6446  15.7942  16.0269  16.5201  16.5438  17.6837  18.9814  19.2900

     occupation numbers 
     1.0000   1.0000   1.0000   1.0000   1.0000   1.0000   1.0000   1.0000
     1.0000   0.0000   0.0000   0.0000   0.0000   0.0000   0.0000   0.0000
     0.0000   0.0000   0.0000   0.0000   0.0000   0.0000   0.0000   0.0000
     0.0000   0.0000   0.0000   0.0000   0.0000   0.0000   0.0000   0.0000
     0.0000   0.0000   0.0000   0.0000   0.0000   0.0000   0.0000   0.0000

          k = 0.0444-0.0769 0.0000 ( 10002 PWs)   bands (ev):

   -22.3823 -22.3196  -9.2737  -7.1928  -6.6668  -6.6385  -6.4261  -6.4044
    -4.1095   0.1100   2.1456   2.9081   2.9554   3.5828   3.8093   4.7860
     5.3668   6.7181   6.7565   7.6446   8.4656   8.5906   9.3904   9.5031
    10.1687  11.1897  11.3753  11.9345  12.1847  13.4490  14.7570  15.0612
    15.8946  16.1522  16.2328  16.5385  16.8402  18.1658  19.0736  19.2405

     occupation numbers 
     1.0000   1.0000   1.0000   1.0000   1.0000   1.0000   1.0000   1.0000
     1.0000   0.0000   0.0000   0.0000   0.0000   0.0000   0.0000   0.0000
     0.0000   0.0000   0.0000   0.0000   0.0000   0.0000   0.0000   0.0000
     0.0000   0.0000   0.0000   0.0000   0.0000   0.0000   0.0000   0.0000
     0.0000   0.0000   0.0000   0.0000   0.0000   0.0000   0.0000   0.0000

          k = 0.0888-0.1537 0.0000 ( 10062 PWs)   bands (ev):

   -22.2523 -22.1944  -9.0834  -7.3736  -7.2678  -6.9759  -6.5389  -6.5143
    -3.8228   0.8124   2.5644   3.2580   3.3714   4.0238   4.1423   5.1140
     5.5967   5.9479   6.9105   7.2254   8.3340   8.5478   8.9188   9.2474
    10.3936  10.6063  11.7401  12.4084  12.4777  13.6976  14.2414  14.7607
    15.5504  15.7081  17.3740  17.4313  18.0115  18.4481  18.5746  19.1306

     occupation numbers 
     1.0000   1.0000   1.0000   1.0000   1.0000   1.0000   1.0000   1.0000
     1.0000   0.0000   0.0000   0.0000   0.0000   0.0000   0.0000   0.0000
     0.0000   0.0000   0.0000   0.0000   0.0000   0.0000   0.0000   0.0000
     0.0000   0.0000   0.0000   0.0000   0.0000   0.0000   0.0000   0.0000
     0.0000   0.0000   0.0000   0.0000   0.0000   0.0000   0.0000   0.0000

          k = 0.1333-0.2306 0.0000 ( 10102 PWs)   bands (ev):

   -22.0608 -22.0101  -8.9891  -8.1677  -7.7277  -6.7581  -6.6918  -6.6635
    -3.5228   1.6369   2.8796   3.7641   3.8877   4.2024   4.6686   5.0259
     5.9214   5.9677   7.1042   7.5187   7.9110   8.0716   8.6610   9.5588
    10.6598  11.1491  12.1548  12.3414  13.0954  13.1335  13.6342  15.2021
    15.4177  15.7859  16.0770  16.2734  16.4692  17.0044  17.6228  18.3115

     occupation numbers 
     1.0000   1.0000   1.0000   1.0000   1.0000   1.0000   1.0000   1.0000
     1.0000   0.0000   0.0000   0.0000   0.0000   0.0000   0.0000   0.0000
     0.0000   0.0000   0.0000   0.0000   0.0000   0.0000   0.0000   0.0000
     0.0000   0.0000   0.0000   0.0000   0.0000   0.0000   0.0000   0.0000
     0.0000   0.0000   0.0000   0.0000   0.0000   0.0000   0.0000   0.0000

          k = 0.1777-0.3074 0.0000 ( 10128 PWs)   bands (ev):

   -21.8456 -21.8034  -9.3454  -8.9277  -7.5693  -6.8469  -6.8151  -6.4873
    -3.2381   1.8032   2.3077   4.3040   4.3428   5.0234   5.3886   5.7290
     6.2244   6.4478   7.2680   7.4708   7.6137   8.4950   9.1107  10.3800
    10.9819  11.4759  11.5449  11.9797  13.2311  13.4323  13.7857  13.8493
    14.2246  14.3188  14.6142  15.2416  15.5971  16.1048  16.2509  16.8922

     occupation numbers 
     1.0000   1.0000   1.0000   1.0000   1.0000   1.0000   1.0000   1.0000
     1.0000   0.0000   0.0000   0.0000   0.0000   0.0000   0.0000   0.0000
     0.0000   0.0000   0.0000   0.0000   0.0000   0.0000   0.0000   0.0000
     0.0000   0.0000   0.0000   0.0000   0.0000   0.0000   0.0000   0.0000
     0.0000   0.0000   0.0000   0.0000   0.0000   0.0000   0.0000   0.0000

          k = 0.2221-0.3843 0.0000 ( 10152 PWs)   bands (ev):

   -21.6566 -21.6221  -9.8156  -9.5095  -7.1139  -6.9705  -6.9359  -6.2445
    -2.9683   0.4631   2.6128   4.8069   5.1294   5.8589   6.0979   6.2622
     6.7856   7.1314   7.2233   7.9094   8.4045   9.2552   9.7248  10.4812
    10.5844  11.2623  11.4097  11.6876  11.8104  11.9648  12.5740  12.6836
    13.2177  13.9466  14.4603  14.7426  15.3795  15.5058  16.1409  16.2983

     occupation numbers 
     1.0000   1.0000   1.0000   1.0000   1.0000   1.0000   1.0000   1.0000
     1.0000   0.0000   0.0000   0.0000   0.0000   0.0000   0.0000   0.0000
     0.0000   0.0000   0.0000   0.0000   0.0000   0.0000   0.0000   0.0000
     0.0000   0.0000   0.0000   0.0000   0.0000   0.0000   0.0000   0.0000
     0.0000   0.0000   0.0000   0.0000   0.0000   0.0000   0.0000   0.0000

          k = 0.2665-0.4612 0.0000 ( 10144 PWs)   bands (ev):

   -21.5451 -21.5151 -10.0966  -9.8246  -7.0384  -7.0024  -6.7639  -6.0994
    -2.7434  -0.4245   2.6582   5.0840   5.2605   6.5644   6.6146   6.9505
     7.6521   7.8898   8.1388   8.6423   8.8456   9.4075   9.4798   9.7875
    10.0119  10.3799  10.4090  11.1112  11.2878  11.7022  12.0102  12.1645
    13.1261  13.1686  13.9055  14.5689  15.1943  15.8894  16.1479  16.5185

     occupation numbers 
     1.0000   1.0000   1.0000   1.0000   1.0000   1.0000   1.0000   1.0000
     1.0000   0.0000   0.0000   0.0000   0.0000   0.0000   0.0000   0.0000
     0.0000   0.0000   0.0000   0.0000   0.0000   0.0000   0.0000   0.0000
     0.0000   0.0000   0.0000   0.0000   0.0000   0.0000   0.0000   0.0000
     0.0000   0.0000   0.0000   0.0000   0.0000   0.0000   0.0000   0.0000

          k = 0.0888 0.0000 0.0000 ( 10006 PWs)   bands (ev):

   -22.3822 -22.3195  -9.2734  -7.1926  -6.6613  -6.6330  -6.4323  -6.4105
    -4.1092   0.1101   2.1457   2.9083   2.9556   3.5829   3.8095   4.7862
     5.3670   6.7182   6.7574   7.6561   8.4655   8.5748   9.3911   9.5163
    10.1531  11.1975  11.3756  11.9449  12.1657  13.4502  14.7590  15.0588
    15.9052  16.1424  16.2148  16.5439  16.8492  18.1683  19.0766  19.2469

     occupation numbers 
     1.0000   1.0000   1.0000   1.0000   1.0000   1.0000   1.0000   1.0000
     1.0000   0.0000   0.0000   0.0000   0.0000   0.0000   0.0000   0.0000
     0.0000   0.0000   0.0000   0.0000   0.0000   0.0000   0.0000   0.0000
     0.0000   0.0000   0.0000   0.0000   0.0000   0.0000   0.0000   0.0000
     0.0000   0.0000   0.0000   0.0000   0.0000   0.0000   0.0000   0.0000

          k = 0.1333-0.0769 0.0000 ( 10027 PWs)   bands (ev):

   -22.2941 -22.2347  -9.1386  -7.2036  -7.0834  -6.9780  -6.5224  -6.4973
    -3.9021   0.6040   2.4416   3.1452   3.2366   3.8913   4.0337   5.0334
     5.5243   6.3577   6.8532   7.1442   8.1339   8.7117   8.8474   9.5893
    10.4649  10.8180  11.6242  11.7269  12.3813  13.9307  14.7124  15.1695
    15.2211  15.9018  16.1431  17.5083  17.9528  18.9438  19.1246  19.2953

     occupation numbers 
     1.0000   1.0000   1.0000   1.0000   1.0000   1.0000   1.0000   1.0000
     1.0000   0.0000   0.0000   0.0000   0.0000   0.0000   0.0000   0.0000
     0.0000   0.0000   0.0000   0.0000   0.0000   0.0000   0.0000   0.0000
     0.0000   0.0000   0.0000   0.0000   0.0000   0.0000   0.0000   0.0000
     0.0000   0.0000   0.0000   0.0000   0.0000   0.0000   0.0000   0.0000

          k = 0.1777-0.1537 0.0000 ( 10076 PWs)   bands (ev):

   -22.1331 -22.0797  -8.9737  -7.8433  -7.5901  -6.8480  -6.6908  -6.6579
    -3.6217   1.3716   2.9128   3.5762   3.7664   4.2748   4.4619   4.9336
     5.7971   5.8122   7.0670   7.1081   7.8175   8.0831   9.2755   9.4851
    10.4607  10.9465  11.9866  12.0805  12.7778  13.6055  14.2870  14.7947
    15.2805  16.1108  16.9527  17.4311  17.4677  17.8663  18.3622  18.4429

     occupation numbers 
     1.0000   1.0000   1.0000   1.0000   1.0000   1.0000   1.0000   1.0000
     1.0000   0.0000   0.0000   0.0000   0.0000   0.0000   0.0000   0.0000
     0.0000   0.0000   0.0000   0.0000   0.0000   0.0000   0.0000   0.0000
     0.0000   0.0000   0.0000   0.0000   0.0000   0.0000   0.0000   0.0000
     0.0000   0.0000   0.0000   0.0000   0.0000   0.0000   0.0000   0.0000

          k = 0.2221-0.2306 0.0000 ( 10097 PWs)   bands (ev):

   -21.9290 -21.8834  -9.1211  -8.5865  -7.6791  -6.8873  -6.8528  -6.5908
    -3.3364   2.1482   2.5923   3.9831   4.0952   4.6250   5.0918   5.4637
     6.1582   6.1731   6.7528   7.1679   8.1595   8.2289   8.9374  10.0386
    10.9494  11.3164  11.9794  12.2792  13.0174  13.2550  14.3281  14.8509
    14.8807  15.0655  15.2030  15.8392  15.9015  16.6610  16.7701  17.4887

     occupation numbers 
     1.0000   1.0000   1.0000   1.0000   1.0000   1.0000   1.0000   1.0000
     1.0000   0.0000   0.0000   0.0000   0.0000   0.0000   0.0000   0.0000
     0.0000   0.0000   0.0000   0.0000   0.0000   0.0000   0.0000   0.0000
     0.0000   0.0000   0.0000   0.0000   0.0000   0.0000   0.0000   0.0000
     0.0000   0.0000   0.0000   0.0000   0.0000   0.0000   0.0000   0.0000

          k = 0.2665-0.3074 0.0000 ( 10137 PWs)   bands (ev):

   -21.7256 -21.6881  -9.5671  -9.2262  -7.3127  -7.0530  -7.0240  -6.3331
    -3.0576   1.1948   2.6596   4.6345   4.7571   5.6466   5.6990   5.8785
     6.4340   6.4858   7.3325   7.5593   8.2084   8.9033   9.5984  10.6286
    11.1750  11.2266  11.4407  12.2051  12.6299  12.7136  13.0556  13.5032
    13.8846  14.0703  14.5367  15.1142  15.2092  15.5396  16.0609  16.8858

     occupation numbers 
     1.0000   1.0000   1.0000   1.0000   1.0000   1.0000   1.0000   1.0000
     1.0000   0.0000   0.0000   0.0000   0.0000   0.0000   0.0000   0.0000
     0.0000   0.0000   0.0000   0.0000   0.0000   0.0000   0.0000   0.0000
     0.0000   0.0000   0.0000   0.0000   0.0000   0.0000   0.0000   0.0000
     0.0000   0.0000   0.0000   0.0000   0.0000   0.0000   0.0000   0.0000

          k = 0.3110-0.3843 0.0000 ( 10116 PWs)   bands (ev):

   -21.5739 -21.5426  -9.9352  -9.6558  -7.2098  -7.1421  -6.8492  -6.1375
    -2.7872   0.0254   2.8190   5.0933   5.2737   5.6949   6.4170   6.8153
     7.0960   7.3882   7.9083   8.3477   8.9278   9.5798  10.0197  10.2308
    10.4969  10.8092  10.8628  11.2375  11.5902  11.6981  12.4479  12.4754
    13.3307  13.3999  14.1292  15.0587  15.0871  15.6624  15.6732  16.0148

     occupation numbers 
     1.0000   1.0000   1.0000   1.0000   1.0000   1.0000   1.0000   1.0000
     1.0000   0.0000   0.0000   0.0000   0.0000   0.0000   0.0000   0.0000
     0.0000   0.0000   0.0000   0.0000   0.0000   0.0000   0.0000   0.0000
     0.0000   0.0000   0.0000   0.0000   0.0000   0.0000   0.0000   0.0000
     0.0000   0.0000   0.0000   0.0000   0.0000   0.0000   0.0000   0.0000

          k =-0.2221 0.5380 0.0000 ( 10126 PWs)   bands (ev):

   -21.5175 -21.4886 -10.0710  -9.8070  -7.2483  -7.1841  -6.6675  -6.0642
    -2.6368  -0.4699   2.8330   5.1781   5.2422   6.0921   6.7214   6.9758
     8.3080   8.3234   8.5957   8.7741   8.8768   9.2800   9.3370   9.8157
     9.9200  10.4386  10.4643  11.0255  11.3403  11.5145  12.0142  12.3153
    12.9749  13.5715  14.1465  14.3090  15.1352  15.4164  15.8324  16.4449

     occupation numbers 
     1.0000   1.0000   1.0000   1.0000   1.0000   1.0000   1.0000   1.0000
     1.0000   0.0000   0.0000   0.0000   0.0000   0.0000   0.0000   0.0000
     0.0000   0.0000   0.0000   0.0000   0.0000   0.0000   0.0000   0.0000
     0.0000   0.0000   0.0000   0.0000   0.0000   0.0000   0.0000   0.0000
     0.0000   0.0000   0.0000   0.0000   0.0000   0.0000   0.0000   0.0000

          k =-0.1777 0.4612 0.0000 ( 10116 PWs)   bands (ev):

   -21.5741 -21.5429  -9.9347  -9.6552  -7.2102  -7.1424  -6.8498  -6.1378
    -2.7879   0.0273   2.8187   5.0930   5.2722   5.6941   6.4176   6.8136
     7.0940   7.3868   7.9075   8.3468   8.9282   9.5788  10.0215  10.2309
    10.4996  10.8116  10.8637  11.2380  11.5922  11.6981  12.4488  12.4778
    13.3317  13.4025  14.1307  15.0594  15.0862  15.6677  15.6742  16.0082

     occupation numbers 
     1.0000   1.0000   1.0000   1.0000   1.0000   1.0000   1.0000   1.0000
     1.0000   0.0000   0.0000   0.0000   0.0000   0.0000   0.0000   0.0000
     0.0000   0.0000   0.0000   0.0000   0.0000   0.0000   0.0000   0.0000
     0.0000   0.0000   0.0000   0.0000   0.0000   0.0000   0.0000   0.0000
     0.0000   0.0000   0.0000   0.0000   0.0000   0.0000   0.0000   0.0000

          k =-0.1333 0.3843 0.0000 ( 10141 PWs)   bands (ev):

   -21.7260 -21.6886  -9.5665  -9.2253  -7.3133  -7.0536  -7.0242  -6.3336
    -3.0584   1.1975   2.6593   4.6339   4.7565   5.6436   5.6956   5.8775
     6.4331   6.4856   7.3319   7.5597   8.2099   8.9032   9.5991  10.6276
    11.1774  11.2256  11.4412  12.2066  12.6335  12.7168  13.0589  13.5058
    13.8853  14.0729  14.5406  15.1148  15.2139  15.5329  16.0629  16.8828

     occupation numbers 
     1.0000   1.0000   1.0000   1.0000   1.0000   1.0000   1.0000   1.0000
     1.0000   0.0000   0.0000   0.0000   0.0000   0.0000   0.0000   0.0000
     0.0000   0.0000   0.0000   0.0000   0.0000   0.0000   0.0000   0.0000
     0.0000   0.0000   0.0000   0.0000   0.0000   0.0000   0.0000   0.0000
     0.0000   0.0000   0.0000   0.0000   0.0000   0.0000   0.0000   0.0000

          k =-0.0888 0.3074 0.0000 ( 10097 PWs)   bands (ev):

   -21.9295 -21.8839  -9.1212  -8.5860  -7.6794  -6.8871  -6.8522  -6.5915
    -3.3371   2.1481   2.5946   3.9827   4.0942   4.6237   5.0905   5.4633
     6.1522   6.1725   6.7511   7.1680   8.1608   8.2308   8.9405  10.0381
    10.9494  11.3159  11.9809  12.2806  13.0184  13.2571  14.3327  14.8521
    14.8845  15.0630  15.2073  15.8433  15.9026  16.6616  16.7684  17.4917

     occupation numbers 
     1.0000   1.0000   1.0000   1.0000   1.0000   1.0000   1.0000   1.0000
     1.0000   0.0000   0.0000   0.0000   0.0000   0.0000   0.0000   0.0000
     0.0000   0.0000   0.0000   0.0000   0.0000   0.0000   0.0000   0.0000
     0.0000   0.0000   0.0000   0.0000   0.0000   0.0000   0.0000   0.0000
     0.0000   0.0000   0.0000   0.0000   0.0000   0.0000   0.0000   0.0000

          k =-0.0444 0.2306 0.0000 ( 10078 PWs)   bands (ev):

   -22.1335 -22.0801  -8.9746  -7.8442  -7.5908  -6.8483  -6.6888  -6.6560
    -3.6223   1.3717   2.9126   3.5753   3.7656   4.2746   4.4609   4.9336
     5.7968   5.8114   7.0591   7.1073   7.8179   8.0826   9.2756   9.4928
    10.4611  10.9503  11.9837  12.0802  12.7816  13.6098  14.2908  14.7871
    15.2854  16.1082  16.9659  17.4360  17.4756  17.8701  18.3678  18.4392

     occupation numbers 
     1.0000   1.0000   1.0000   1.0000   1.0000   1.0000   1.0000   1.0000
     1.0000   0.0000   0.0000   0.0000   0.0000   0.0000   0.0000   0.0000
     0.0000   0.0000   0.0000   0.0000   0.0000   0.0000   0.0000   0.0000
     0.0000   0.0000   0.0000   0.0000   0.0000   0.0000   0.0000   0.0000
     0.0000   0.0000   0.0000   0.0000   0.0000   0.0000   0.0000   0.0000

          k = 0.0000 0.1537 0.0000 ( 10029 PWs)   bands (ev):

   -22.2944 -22.2350  -9.1393  -7.2060  -7.0871  -6.9797  -6.5174  -6.4923
    -3.9026   0.6040   2.4414   3.1446   3.2360   3.8911   4.0331   5.0328
     5.5237   6.3530   6.8529   7.1421   8.1360   8.7102   8.8416   9.5929
    10.4767  10.8186  11.6236  11.7337  12.3766  13.9295  14.7097  15.1727
    15.2315  15.8966  16.1602  17.5037  17.9468  18.9521  19.1132  19.2845

     occupation numbers 
     1.0000   1.0000   1.0000   1.0000   1.0000   1.0000   1.0000   1.0000
     1.0000   0.0000   0.0000   0.0000   0.0000   0.0000   0.0000   0.0000
     0.0000   0.0000   0.0000   0.0000   0.0000   0.0000   0.0000   0.0000
     0.0000   0.0000   0.0000   0.0000   0.0000   0.0000   0.0000   0.0000
     0.0000   0.0000   0.0000   0.0000   0.0000   0.0000   0.0000   0.0000

          k = 0.1777 0.0000 0.0000 ( 10066 PWs)   bands (ev):

   -22.2519 -22.1940  -9.0824  -7.3689  -7.2631  -6.9750  -6.5458  -6.5212
    -3.8221   0.8124   2.5648   3.2589   3.3721   4.0239   4.1431   5.1155
     5.5976   5.9580   6.9107   7.2262   8.3164   8.5532   8.9231   9.2509
    10.3995  10.5913  11.7411  12.3929  12.4813  13.6937  14.2530  14.7603
    15.5525  15.6900  17.3663  17.4343  18.0167  18.4667  18.5936  19.1544

     occupation numbers 
     1.0000   1.0000   1.0000   1.0000   1.0000   1.0000   1.0000   1.0000
     1.0000   0.0000   0.0000   0.0000   0.0000   0.0000   0.0000   0.0000
     0.0000   0.0000   0.0000   0.0000   0.0000   0.0000   0.0000   0.0000
     0.0000   0.0000   0.0000   0.0000   0.0000   0.0000   0.0000   0.0000
     0.0000   0.0000   0.0000   0.0000   0.0000   0.0000   0.0000   0.0000

          k = 0.2221-0.0769 0.0000 ( 10082 PWs)   bands (ev):

   -22.1328 -22.0794  -8.9727  -7.8405  -7.5878  -6.8476  -6.6950  -6.6619
    -3.6212   1.3713   2.9131   3.5769   3.7669   4.2758   4.4626   4.9383
     5.7990   5.8128   7.0600   7.1077   7.8150   8.0871   9.2769   9.4864
    10.4632  10.9391  11.9766  12.0815  12.7823  13.6150  14.2838  14.7832
    15.2791  16.1089  16.9633  17.4542  17.4841  17.8889  18.3853  18.4428

     occupation numbers 
     1.0000   1.0000   1.0000   1.0000   1.0000   1.0000   1.0000   1.0000
     1.0000   0.0000   0.0000   0.0000   0.0000   0.0000   0.0000   0.0000
     0.0000   0.0000   0.0000   0.0000   0.0000   0.0000   0.0000   0.0000
     0.0000   0.0000   0.0000   0.0000   0.0000   0.0000   0.0000   0.0000
     0.0000   0.0000   0.0000   0.0000   0.0000   0.0000   0.0000   0.0000

          k = 0.2665-0.1537 0.0000 ( 10099 PWs)   bands (ev):

   -21.9585 -21.9118  -9.0284  -8.4129  -7.6718  -6.9742  -6.9321  -6.6264
    -3.3656   2.1120   3.2130   3.6753   4.0212   4.4682   4.9932   5.2951
     5.9382   6.1844   6.4954   7.2184   7.9531   8.3454   9.1279   9.9004
    10.7971  11.2033  12.3882  12.4121  12.7247  13.1117  14.5072  15.0326
    15.4046  16.1574  16.2879  16.6290  16.6524  16.7662  16.8749  17.0838

     occupation numbers 
     1.0000   1.0000   1.0000   1.0000   1.0000   1.0000   1.0000   1.0000
     1.0000   0.0000   0.0000   0.0000   0.0000   0.0000   0.0000   0.0000
     0.0000   0.0000   0.0000   0.0000   0.0000   0.0000   0.0000   0.0000
     0.0000   0.0000   0.0000   0.0000   0.0000   0.0000   0.0000   0.0000
     0.0000   0.0000   0.0000   0.0000   0.0000   0.0000   0.0000   0.0000

          k = 0.3110-0.2306 0.0000 ( 10147 PWs)   bands (ev):

   -21.7645 -21.7254  -9.3373  -8.9551  -7.3920  -7.2697  -7.2288  -6.3826
    -3.0882   2.0319   2.7826   4.0938   4.5335   5.2443   5.4746   5.7661
     6.2125   6.5266   7.2885   7.3384   8.3582   8.6237   9.2744  10.6141
    11.1561  11.3317  11.4993  12.9253  13.2616  13.5461  13.9614  14.0269
    14.3835  14.6829  15.2116  15.2555  15.4693  15.7903  15.9763  15.9976

     occupation numbers 
     1.0000   1.0000   1.0000   1.0000   1.0000   1.0000   1.0000   1.0000
     1.0000   0.0000   0.0000   0.0000   0.0000   0.0000   0.0000   0.0000
     0.0000   0.0000   0.0000   0.0000   0.0000   0.0000   0.0000   0.0000
     0.0000   0.0000   0.0000   0.0000   0.0000   0.0000   0.0000   0.0000
     0.0000   0.0000   0.0000   0.0000   0.0000   0.0000   0.0000   0.0000

          k = 0.3554-0.3074 0.0000 ( 10154 PWs)   bands (ev):

   -21.5958 -21.5634  -9.6661  -9.3760  -7.5687  -7.4749  -6.9250  -6.1669
    -2.7858   0.7378   3.1413   4.2531   5.1557   5.5529   6.3580   6.5733
     7.0343   7.0970   7.7834   8.0752   8.6588   9.4090  10.2328  10.3445
    10.8574  11.3782  11.8260  11.8990  12.1467  12.4985  12.9164  13.1514
    13.5911  14.2115  14.3670  14.5447  15.0104  15.1705  15.3700  15.5846

     occupation numbers 
     1.0000   1.0000   1.0000   1.0000   1.0000   1.0000   1.0000   1.0000
     1.0000   0.0000   0.0000   0.0000   0.0000   0.0000   0.0000   0.0000
     0.0000   0.0000   0.0000   0.0000   0.0000   0.0000   0.0000   0.0000
     0.0000   0.0000   0.0000   0.0000   0.0000   0.0000   0.0000   0.0000
     0.0000   0.0000   0.0000   0.0000   0.0000   0.0000   0.0000   0.0000

          k =-0.1777 0.6149 0.0000 ( 10128 PWs)   bands (ev):

   -21.4971 -21.4688  -9.8610  -9.6062  -7.7158  -7.6119  -6.6185  -6.0397
    -2.4991  -0.1573   3.2445   4.1827   5.5653   6.0454   6.6486   7.1738
     8.0501   8.1709   8.6384   8.7888   9.5823   9.5979   9.8536  10.1135
    10.2398  10.4993  10.9873  11.2331  11.4046  11.6787  12.6819  12.8284
    13.5392  13.5824  13.8719  14.4784  14.5376  15.0782  15.0795  15.4860

     occupation numbers 
     1.0000   1.0000   1.0000   1.0000   1.0000   1.0000   1.0000   1.0000
     1.0000   0.0000   0.0000   0.0000   0.0000   0.0000   0.0000   0.0000
     0.0000   0.0000   0.0000   0.0000   0.0000   0.0000   0.0000   0.0000
     0.0000   0.0000   0.0000   0.0000   0.0000   0.0000   0.0000   0.0000
     0.0000   0.0000   0.0000   0.0000   0.0000   0.0000   0.0000   0.0000

          k =-0.1333 0.5380 0.0000 ( 10128 PWs)   bands (ev):

   -21.4973 -21.4690  -9.8606  -9.6057  -7.7160  -7.6121  -6.6191  -6.0400
    -2.5002  -0.1550   3.2442   4.1816   5.5647   6.0435   6.6501   7.1751
     8.0455   8.1678   8.6355   8.7866   9.5814   9.5994   9.8559  10.1169
    10.2438  10.4998  10.9873  11.2369  11.4057  11.6772  12.6853  12.8308
    13.5379  13.5805  13.8755  14.4753  14.5365  15.0754  15.0837  15.4852

     occupation numbers 
     1.0000   1.0000   1.0000   1.0000   1.0000   1.0000   1.0000   1.0000
     1.0000   0.0000   0.0000   0.0000   0.0000   0.0000   0.0000   0.0000
     0.0000   0.0000   0.0000   0.0000   0.0000   0.0000   0.0000   0.0000
     0.0000   0.0000   0.0000   0.0000   0.0000   0.0000   0.0000   0.0000
     0.0000   0.0000   0.0000   0.0000   0.0000   0.0000   0.0000   0.0000

          k =-0.0888 0.4612 0.0000 ( 10152 PWs)   bands (ev):

   -21.5965 -21.5641  -9.6652  -9.3748  -7.5689  -7.4751  -6.9264  -6.1677
    -2.7877   0.7427   3.1407   4.2503   5.1546   5.5493   6.3593   6.5692
     7.0321   7.0948   7.7853   8.0738   8.6597   9.4069  10.2328  10.3430
    10.8560  11.3841  11.8278  11.9052  12.1499  12.4987  12.9231  13.1561
    13.5939  14.2071  14.3708  14.5451  15.0091  15.1672  15.3665  15.5877

     occupation numbers 
     1.0000   1.0000   1.0000   1.0000   1.0000   1.0000   1.0000   1.0000
     1.0000   0.0000   0.0000   0.0000   0.0000   0.0000   0.0000   0.0000
     0.0000   0.0000   0.0000   0.0000   0.0000   0.0000   0.0000   0.0000
     0.0000   0.0000   0.0000   0.0000   0.0000   0.0000   0.0000   0.0000
     0.0000   0.0000   0.0000   0.0000   0.0000   0.0000   0.0000   0.0000

          k =-0.0444 0.3843 0.0000 ( 10137 PWs)   bands (ev):

   -21.7655 -21.7263  -9.3372  -8.9544  -7.3922  -7.2701  -7.2279  -6.3837
    -3.0900   2.0371   2.7823   4.0913   4.5318   5.2398   5.4707   5.7635
     6.2103   6.5271   7.2887   7.3365   8.3659   8.6228   9.2740  10.6113
    11.1569  11.3332  11.4975  12.9285  13.2622  13.5465  13.9678  14.0328
    14.3896  14.6850  15.2071  15.2563  15.4746  15.7916  15.9659  15.9920

     occupation numbers 
     1.0000   1.0000   1.0000   1.0000   1.0000   1.0000   1.0000   1.0000
     1.0000   0.0000   0.0000   0.0000   0.0000   0.0000   0.0000   0.0000
     0.0000   0.0000   0.0000   0.0000   0.0000   0.0000   0.0000   0.0000
     0.0000   0.0000   0.0000   0.0000   0.0000   0.0000   0.0000   0.0000
     0.0000   0.0000   0.0000   0.0000   0.0000   0.0000   0.0000   0.0000

          k = 0.0000 0.3074 0.0000 ( 10101 PWs)   bands (ev):

   -21.9595 -21.9127  -9.0300  -8.4140  -7.6730  -6.9710  -6.9287  -6.6275
    -3.3670   2.1124   3.2151   3.6736   4.0190   4.4657   4.9909   5.2937
     5.9331   6.1831   6.4948   7.2182   7.9527   8.3453   9.1349   9.8991
    10.7962  11.2061  12.3904  12.4132  12.7259  13.1117  14.5034  15.0317
    15.4213  16.1529  16.2852  16.6277  16.6490  16.7605  16.8707  17.0832

     occupation numbers 
     1.0000   1.0000   1.0000   1.0000   1.0000   1.0000   1.0000   1.0000
     1.0000   0.0000   0.0000   0.0000   0.0000   0.0000   0.0000   0.0000
     0.0000   0.0000   0.0000   0.0000   0.0000   0.0000   0.0000   0.0000
     0.0000   0.0000   0.0000   0.0000   0.0000   0.0000   0.0000   0.0000
     0.0000   0.0000   0.0000   0.0000   0.0000   0.0000   0.0000   0.0000

          k = 0.2665 0.0000 0.0000 ( 10104 PWs)   bands (ev):

   -22.0599 -22.0093  -8.9861  -8.1629  -7.7245  -6.7572  -6.6997  -6.6713
    -3.5214   1.6360   2.8811   3.7661   3.8905   4.2059   4.6706   5.0302
     5.9229   5.9690   7.1043   7.5194   7.8912   8.0786   8.6661   9.5617
    10.6628  11.1341  12.1585  12.3375  13.1033  13.1211  13.6340  15.2083
    15.4007  15.7942  16.0943  16.2862  16.4883  17.0243  17.6405  18.3209

     occupation numbers 
     1.0000   1.0000   1.0000   1.0000   1.0000   1.0000   1.0000   1.0000
     1.0000   0.0000   0.0000   0.0000   0.0000   0.0000   0.0000   0.0000
     0.0000   0.0000   0.0000   0.0000   0.0000   0.0000   0.0000   0.0000
     0.0000   0.0000   0.0000   0.0000   0.0000   0.0000   0.0000   0.0000
     0.0000   0.0000   0.0000   0.0000   0.0000   0.0000   0.0000   0.0000

          k = 0.3110-0.0769 0.0000 ( 10101 PWs)   bands (ev):

   -21.9282 -21.8827  -9.1177  -8.5825  -7.6771  -6.8942  -6.8593  -6.5901
    -3.3351   2.1466   2.5967   3.9854   4.0973   4.6269   5.0936   5.4654
     6.1513   6.1737   6.7488   7.1696   8.1653   8.2245   8.9417  10.0408
    10.9506  11.3060  11.9834  12.2727  13.0204  13.2588  14.3291  14.8535
    14.8929  15.0716  15.2195  15.8584  15.9100  16.6728  16.7707  17.5071

     occupation numbers 
     1.0000   1.0000   1.0000   1.0000   1.0000   1.0000   1.0000   1.0000
     1.0000   0.0000   0.0000   0.0000   0.0000   0.0000   0.0000   0.0000
     0.0000   0.0000   0.0000   0.0000   0.0000   0.0000   0.0000   0.0000
     0.0000   0.0000   0.0000   0.0000   0.0000   0.0000   0.0000   0.0000
     0.0000   0.0000   0.0000   0.0000   0.0000   0.0000   0.0000   0.0000

          k = 0.3554-0.1537 0.0000 ( 10134 PWs)   bands (ev):

   -21.7641 -21.7249  -9.3351  -8.9528  -7.3905  -7.2741  -7.2326  -6.3822
    -3.0872   2.0356   2.7810   4.0911   4.5351   5.2423   5.4742   5.7669
     6.2123   6.5267   7.2915   7.3366   8.3592   8.6259   9.2773  10.6141
    11.1524  11.3328  11.4997  12.9248  13.2655  13.5467  13.9758  14.0437
    14.3976  14.6910  15.1983  15.2642  15.4814  15.7817  15.9573  15.9804

     occupation numbers 
     1.0000   1.0000   1.0000   1.0000   1.0000   1.0000   1.0000   1.0000
     1.0000   0.0000   0.0000   0.0000   0.0000   0.0000   0.0000   0.0000
     0.0000   0.0000   0.0000   0.0000   0.0000   0.0000   0.0000   0.0000
     0.0000   0.0000   0.0000   0.0000   0.0000   0.0000   0.0000   0.0000
     0.0000   0.0000   0.0000   0.0000   0.0000   0.0000   0.0000   0.0000

          k = 0.3998-0.2306 0.0000 ( 10159 PWs)   bands (ev):

   -21.6037 -21.5709  -9.5072  -9.2071  -7.7727  -7.6775  -6.9571  -6.1778
    -2.7783   1.2095   3.3041   3.5806   5.1748   5.5624   6.4269   6.4660
     6.8800   7.1859   7.9263   7.9558   8.3950   9.3322  10.1795  10.1992
    10.7756  11.9029  12.0074  12.9921  13.1088  13.1172  13.5156  13.5462
    13.5663  13.8043  14.0730  14.3993  14.4991  14.5649  14.8038  15.2856

     occupation numbers 
     1.0000   1.0000   1.0000   1.0000   1.0000   1.0000   1.0000   1.0000
     1.0000   0.0000   0.0000   0.0000   0.0000   0.0000   0.0000   0.0000
     0.0000   0.0000   0.0000   0.0000   0.0000   0.0000   0.0000   0.0000
     0.0000   0.0000   0.0000   0.0000   0.0000   0.0000   0.0000   0.0000
     0.0000   0.0000   0.0000   0.0000   0.0000   0.0000   0.0000   0.0000

          k =-0.1333 0.6917 0.0000 ( 10140 PWs)   bands (ev):

   -21.4863 -21.4582  -9.5810  -9.3315  -8.1715  -8.0443  -6.6059  -6.0276
    -2.4006   0.2727   3.2046   3.5973   5.9029   6.2069   6.4801   7.5360
     7.8225   7.9917   8.4649   8.6530   9.4623   9.6140  10.1919  10.8324
    10.9654  11.3479  11.4688  11.5248  12.3058  12.3696  12.6966  12.9987
    13.1162  13.2328  13.5937  13.8053  13.9327  14.2074  14.4057  14.6583

     occupation numbers 
     1.0000   1.0000   1.0000   1.0000   1.0000   1.0000   1.0000   1.0000
     1.0000   0.0000   0.0000   0.0000   0.0000   0.0000   0.0000   0.0000
     0.0000   0.0000   0.0000   0.0000   0.0000   0.0000   0.0000   0.0000
     0.0000   0.0000   0.0000   0.0000   0.0000   0.0000   0.0000   0.0000
     0.0000   0.0000   0.0000   0.0000   0.0000   0.0000   0.0000   0.0000

          k =-0.0888 0.6149 0.0000 ( 10141 PWs)   bands (ev):

   -21.4434 -21.4170  -9.5910  -9.3615  -8.3330  -8.1900  -6.4671  -5.9726
    -2.1572  -0.2087   3.0972   3.6923   6.1065   6.5104   6.7088   7.5259
     8.3187   9.2302   9.3716   9.4437   9.6686   9.7587   9.9453   9.9685
    10.5100  10.9018  10.9496  11.1130  12.0830  12.2427  12.5877  12.5977
    12.9591  12.9688  13.0690  13.7668  13.8387  14.2146  14.5443  14.6547

     occupation numbers 
     1.0000   1.0000   1.0000   1.0000   1.0000   1.0000   1.0000   1.0000
     1.0000   0.0000   0.0000   0.0000   0.0000   0.0000   0.0000   0.0000
     0.0000   0.0000   0.0000   0.0000   0.0000   0.0000   0.0000   0.0000
     0.0000   0.0000   0.0000   0.0000   0.0000   0.0000   0.0000   0.0000
     0.0000   0.0000   0.0000   0.0000   0.0000   0.0000   0.0000   0.0000

          k =-0.0444 0.5380 0.0000 ( 10135 PWs)   bands (ev):

   -21.4870 -21.4589  -9.5807  -9.3309  -8.1710  -8.0438  -6.6074  -6.0284
    -2.4039   0.2786   3.2031   3.5969   5.9010   6.2023   6.4830   7.5399
     7.8181   7.9868   8.4610   8.6514   9.4599   9.6089  10.1901  10.8292
    10.9745  11.3504  11.4766  11.5275  12.3127  12.3674  12.7030  12.9964
    13.1123  13.2292  13.5912  13.8049  13.9320  14.2146  14.4026  14.6619

     occupation numbers 
     1.0000   1.0000   1.0000   1.0000   1.0000   1.0000   1.0000   1.0000
     1.0000   0.0000   0.0000   0.0000   0.0000   0.0000   0.0000   0.0000
     0.0000   0.0000   0.0000   0.0000   0.0000   0.0000   0.0000   0.0000
     0.0000   0.0000   0.0000   0.0000   0.0000   0.0000   0.0000   0.0000
     0.0000   0.0000   0.0000   0.0000   0.0000   0.0000   0.0000   0.0000

          k = 0.0000 0.4612 0.0000 ( 10157 PWs)   bands (ev):

   -21.6049 -21.5721  -9.5076  -9.2070  -7.7706  -7.6754  -6.9593  -6.1791
    -2.7817   1.2155   3.3043   3.5794   5.1724   5.5583   6.4288   6.4604
     6.8759   7.1821   7.9226   7.9652   8.3923   9.3296  10.1817  10.1953
    10.7739  11.8999  12.0046  12.9927  13.1088  13.1198  13.5199  13.5446
    13.5675  13.8065  14.0754  14.3985  14.5009  14.5628  14.8037  15.2865

     occupation numbers 
     1.0000   1.0000   1.0000   1.0000   1.0000   1.0000   1.0000   1.0000
     1.0000   0.0000   0.0000   0.0000   0.0000   0.0000   0.0000   0.0000
     0.0000   0.0000   0.0000   0.0000   0.0000   0.0000   0.0000   0.0000
     0.0000   0.0000   0.0000   0.0000   0.0000   0.0000   0.0000   0.0000
     0.0000   0.0000   0.0000   0.0000   0.0000   0.0000   0.0000   0.0000

          k = 0.3554 0.0000 0.0000 ( 10126 PWs)   bands (ev):

   -21.8443 -21.8021  -9.3408  -8.9232  -7.5670  -6.8558  -6.8238  -6.4859
    -3.2355   1.8069   2.3047   4.3082   4.3462   5.0267   5.3918   5.7284
     6.2256   6.4476   7.2723   7.4493   7.6186   8.5017   9.1157  10.3833
    10.9812  11.4812  11.5280  11.9805  13.2383  13.4419  13.8004  13.8628
    14.2151  14.3280  14.6302  15.2543  15.5822  16.1180  16.2592  16.8966

     occupation numbers 
     1.0000   1.0000   1.0000   1.0000   1.0000   1.0000   1.0000   1.0000
     1.0000   0.0000   0.0000   0.0000   0.0000   0.0000   0.0000   0.0000
     0.0000   0.0000   0.0000   0.0000   0.0000   0.0000   0.0000   0.0000
     0.0000   0.0000   0.0000   0.0000   0.0000   0.0000   0.0000   0.0000
     0.0000   0.0000   0.0000   0.0000   0.0000   0.0000   0.0000   0.0000

          k = 0.3998-0.0769 0.0000 ( 10135 PWs)   bands (ev):

   -21.7243 -21.6869  -9.5625  -9.2219  -7.3111  -7.0612  -7.0322  -6.3319
    -3.0545   1.1986   2.6557   4.6387   4.7587   5.6424   5.6955   5.8807
     6.4323   6.4884   7.3263   7.5656   8.2127   8.9089   9.6034  10.6289
    11.1750  11.2299  11.4294  12.2134  12.6433  12.7285  13.0615  13.5158
    13.8936  14.0771  14.5451  15.1104  15.2200  15.5335  16.0715  16.8809

     occupation numbers 
     1.0000   1.0000   1.0000   1.0000   1.0000   1.0000   1.0000   1.0000
     1.0000   0.0000   0.0000   0.0000   0.0000   0.0000   0.0000   0.0000
     0.0000   0.0000   0.0000   0.0000   0.0000   0.0000   0.0000   0.0000
     0.0000   0.0000   0.0000   0.0000   0.0000   0.0000   0.0000   0.0000
     0.0000   0.0000   0.0000   0.0000   0.0000   0.0000   0.0000   0.0000

          k = 0.4442-0.1537 0.0000 ( 10157 PWs)   bands (ev):

   -21.5948 -21.5625  -9.6622  -9.3724  -7.5747  -7.4813  -6.9240  -6.1660
    -2.7825   0.7399   3.1379   4.2448   5.1581   5.5511   6.3606   6.5748
     7.0383   7.0918   7.7855   8.0799   8.6658   9.4103  10.2309  10.3478
    10.8546  11.3905  11.8321  11.9137  12.1576  12.5040  12.9300  13.1583
    13.5895  14.2060  14.3690  14.5494  15.0069  15.1641  15.3550  15.5851

     occupation numbers 
     1.0000   1.0000   1.0000   1.0000   1.0000   1.0000   1.0000   1.0000
     1.0000   0.0000   0.0000   0.0000   0.0000   0.0000   0.0000   0.0000
     0.0000   0.0000   0.0000   0.0000   0.0000   0.0000   0.0000   0.0000
     0.0000   0.0000   0.0000   0.0000   0.0000   0.0000   0.0000   0.0000
     0.0000   0.0000   0.0000   0.0000   0.0000   0.0000   0.0000   0.0000

          k =-0.0888 0.7686 0.0000 ( 10143 PWs)   bands (ev):

   -21.4858 -21.4577  -9.5785  -9.3292  -8.1751  -8.0479  -6.6053  -6.0271
    -2.3978   0.2722   3.2006   3.5958   5.9020   6.2050   6.4844   7.5332
     7.8243   7.9935   8.4681   8.6533   9.4616   9.6161  10.1919  10.8334
    10.9790  11.3561  11.4819  11.5335  12.3170  12.3623  12.7040  12.9880
    13.0997  13.2317  13.5939  13.7967  13.9267  14.2130  14.3967  14.6646

     occupation numbers 
     1.0000   1.0000   1.0000   1.0000   1.0000   1.0000   1.0000   1.0000
     1.0000   0.0000   0.0000   0.0000   0.0000   0.0000   0.0000   0.0000
     0.0000   0.0000   0.0000   0.0000   0.0000   0.0000   0.0000   0.0000
     0.0000   0.0000   0.0000   0.0000   0.0000   0.0000   0.0000   0.0000
     0.0000   0.0000   0.0000   0.0000   0.0000   0.0000   0.0000   0.0000

          k =-0.0444 0.6917 0.0000 ( 10114 PWs)   bands (ev):

   -21.4238 -21.3981  -9.3127  -9.0996  -8.7428  -8.5782  -6.4156  -5.9484
    -1.9771  -0.2223   2.6539   3.8971   6.3803   6.6449   6.6657   7.7690
     8.3425   9.2035   9.3928   9.5989   9.6853  10.4692  10.6555  10.8274
    10.9595  11.0639  11.1648  11.2598  11.3083  11.8428  12.1805  12.3372
    12.4664  12.4913  12.7779  13.5919  13.6386  14.0048  14.0163  14.3625

     occupation numbers 
     1.0000   1.0000   1.0000   1.0000   1.0000   1.0000   1.0000   1.0000
     1.0000   0.0000   0.0000   0.0000   0.0000   0.0000   0.0000   0.0000
     0.0000   0.0000   0.0000   0.0000   0.0000   0.0000   0.0000   0.0000
     0.0000   0.0000   0.0000   0.0000   0.0000   0.0000   0.0000   0.0000
     0.0000   0.0000   0.0000   0.0000   0.0000   0.0000   0.0000   0.0000

          k = 0.0000 0.6149 0.0000 ( 10123 PWs)   bands (ev):

   -21.4242 -21.3985  -9.3145  -9.1011  -8.7403  -8.5759  -6.4164  -5.9489
    -1.9812  -0.2175   2.6542   3.8973   6.3815   6.6426   6.6639   7.7736
     8.3452   9.1933   9.3875   9.5936   9.6756  10.4636  10.6602  10.8276
    10.9556  11.0669  11.1710  11.2634  11.3122  11.8450  12.1814  12.3415
    12.4708  12.4892  12.7699  13.5904  13.6442  14.0087  14.0203  14.3636

     occupation numbers 
     1.0000   1.0000   1.0000   1.0000   1.0000   1.0000   1.0000   1.0000
     1.0000   0.0000   0.0000   0.0000   0.0000   0.0000   0.0000   0.0000
     0.0000   0.0000   0.0000   0.0000   0.0000   0.0000   0.0000   0.0000
     0.0000   0.0000   0.0000   0.0000   0.0000   0.0000   0.0000   0.0000
     0.0000   0.0000   0.0000   0.0000   0.0000   0.0000   0.0000   0.0000

          k = 0.4442 0.0000 0.0000 ( 10146 PWs)   bands (ev):

   -21.6548 -21.6203  -9.8109  -9.5053  -7.1112  -6.9801  -6.9454  -6.2426
    -2.9632   0.4643   2.6075   4.8121   5.1291   5.8561   6.1016   6.2671
     6.7913   7.1088   7.2294   7.9170   8.4116   9.2615   9.7265  10.4829
    10.5891  11.2699  11.4223  11.6686  11.8221  11.9737  12.5853  12.6906
    13.2230  13.9575  14.4697  14.7498  15.3711  15.5138  16.1269  16.3090

     occupation numbers 
     1.0000   1.0000   1.0000   1.0000   1.0000   1.0000   1.0000   1.0000
     1.0000   0.0000   0.0000   0.0000   0.0000   0.0000   0.0000   0.0000
     0.0000   0.0000   0.0000   0.0000   0.0000   0.0000   0.0000   0.0000
     0.0000   0.0000   0.0000   0.0000   0.0000   0.0000   0.0000   0.0000
     0.0000   0.0000   0.0000   0.0000   0.0000   0.0000   0.0000   0.0000

          k = 0.4887-0.0769 0.0000 ( 10112 PWs)   bands (ev):

   -21.5721 -21.5409  -9.9305  -9.6516  -7.2184  -7.1512  -6.8474  -6.1357
    -2.7807   0.0251   2.8135   5.0972   5.2641   5.6910   6.4233   6.8096
     7.0976   7.3947   7.9150   8.3547   8.9345   9.5833  10.0238  10.2341
    10.5081  10.8187  10.8721  11.2329  11.5970  11.6991  12.4549  12.4806
    13.3346  13.4118  14.1363  15.0630  15.0866  15.6668  15.6728  16.0094

     occupation numbers 
     1.0000   1.0000   1.0000   1.0000   1.0000   1.0000   1.0000   1.0000
     1.0000   0.0000   0.0000   0.0000   0.0000   0.0000   0.0000   0.0000
     0.0000   0.0000   0.0000   0.0000   0.0000   0.0000   0.0000   0.0000
     0.0000   0.0000   0.0000   0.0000   0.0000   0.0000   0.0000   0.0000
     0.0000   0.0000   0.0000   0.0000   0.0000   0.0000   0.0000   0.0000

          k =-0.0444 0.8455 0.0000 ( 10124 PWs)   bands (ev):

   -21.4956 -21.4674  -9.8567  -9.6024  -7.7232  -7.6193  -6.6166  -6.0382
    -2.4916  -0.1602   3.2403   4.1733   5.5663   6.0381   6.6570   7.1745
     8.0551   8.1757   8.6439   8.7912   9.5844   9.6058   9.8632  10.1212
    10.2511  10.5014  10.9861  11.2417  11.4136  11.6852  12.6903  12.8326
    13.5462  13.5773  13.8705  14.4707  14.5226  15.0589  15.0890  15.4869

     occupation numbers 
     1.0000   1.0000   1.0000   1.0000   1.0000   1.0000   1.0000   1.0000
     1.0000   0.0000   0.0000   0.0000   0.0000   0.0000   0.0000   0.0000
     0.0000   0.0000   0.0000   0.0000   0.0000   0.0000   0.0000   0.0000
     0.0000   0.0000   0.0000   0.0000   0.0000   0.0000   0.0000   0.0000
     0.0000   0.0000   0.0000   0.0000   0.0000   0.0000   0.0000   0.0000

          k = 0.0000 0.7686 0.0000 ( 10139 PWs)   bands (ev):

   -21.4424 -21.4161  -9.5874  -9.3583  -8.3384  -8.1953  -6.4656  -5.9716
    -2.1500  -0.2143   3.0928   3.6904   6.1056   6.5070   6.7146   7.5250
     8.3176   9.2372   9.3783   9.4482   9.6760   9.7646   9.9473   9.9763
    10.5135  10.9079  10.9565  11.1209  12.0894  12.2296  12.5919  12.6042
    12.9469  12.9543  13.0750  13.7522  13.8310  14.2059  14.5506  14.6558

     occupation numbers 
     1.0000   1.0000   1.0000   1.0000   1.0000   1.0000   1.0000   1.0000
     1.0000   0.0000   0.0000   0.0000   0.0000   0.0000   0.0000   0.0000
     0.0000   0.0000   0.0000   0.0000   0.0000   0.0000   0.0000   0.0000
     0.0000   0.0000   0.0000   0.0000   0.0000   0.0000   0.0000   0.0000
     0.0000   0.0000   0.0000   0.0000   0.0000   0.0000   0.0000   0.0000

          k = 0.5331 0.0000 0.0000 ( 10132 PWs)   bands (ev):

   -21.5430 -21.5131 -10.0920  -9.8206  -7.0484  -7.0122  -6.7609  -6.0973
    -2.7343  -0.4276   2.6519   5.0883   5.2511   6.5715   6.6235   6.9274
     7.6602   7.8981   8.1460   8.6498   8.8499   9.4174   9.4881   9.7945
    10.0173  10.3842  10.4148  11.1203  11.2965  11.6820  12.0144  12.1727
    13.1328  13.1779  13.9112  14.5774  15.2027  15.8966  16.1380  16.5647

     occupation numbers 
     1.0000   1.0000   1.0000   1.0000   1.0000   1.0000   1.0000   1.0000
     1.0000   0.0000   0.0000   0.0000   0.0000   0.0000   0.0000   0.0000
     0.0000   0.0000   0.0000   0.0000   0.0000   0.0000   0.0000   0.0000
     0.0000   0.0000   0.0000   0.0000   0.0000   0.0000   0.0000   0.0000
     0.0000   0.0000   0.0000   0.0000   0.0000   0.0000   0.0000   0.0000

          k = 0.0000 0.9223 0.0000 ( 10129 PWs)   bands (ev):

   -21.5155 -21.4867 -10.0665  -9.8031  -7.2574  -7.1933  -6.6648  -6.0622
    -2.6270  -0.4743   2.8272   5.1678   5.2456   6.0793   6.7312   6.9806
     8.3157   8.3297   8.6036   8.7824   8.8848   9.2877   9.3451   9.8197
     9.9246  10.4419  10.4724  11.0279  11.3422  11.5068  12.0214  12.3247
    12.9741  13.5794  14.1530  14.3173  15.1385  15.4097  15.8211  16.4469

     occupation numbers 
     1.0000   1.0000   1.0000   1.0000   1.0000   1.0000   1.0000   1.0000
     1.0000   0.0000   0.0000   0.0000   0.0000   0.0000   0.0000   0.0000
     0.0000   0.0000   0.0000   0.0000   0.0000   0.0000   0.0000   0.0000
     0.0000   0.0000   0.0000   0.0000   0.0000   0.0000   0.0000   0.0000
     0.0000   0.0000   0.0000   0.0000   0.0000   0.0000   0.0000   0.0000

     highest occupied, lowest unoccupied level (ev):    -1.9771   -0.4743

!    total energy              =    -162.71121930 Ry
     total all-electron energy =     -1272.690560 Ry
     estimated scf accuracy    <          6.9E-09 Ry

     The total energy is the sum of the following terms:
     one-electron contribution =    -682.23344426 Ry
     hartree contribution      =     346.45901806 Ry
     xc contribution           =     -20.37968931 Ry
     ewald contribution        =     281.96672436 Ry
     one-center paw contrib.   =     -88.52382814 Ry
      -> PAW hartree energy AE =      27.87723860 Ry
      -> PAW hartree energy PS =     -27.84347089 Ry
      -> PAW xc energy AE      =     -16.94002163 Ry
      -> PAW xc energy PS      =       7.32058890 Ry
      -> total E_H with PAW    =     346.49278577 Ry
      -> total E_XC with PAW   =     -29.99912204 Ry

     convergence has been achieved in  10 iterations

     Writing all to output data dir ./work/Al2O2.save/
 
     init_run     :      0.98s CPU      1.21s WALL (       1 calls)
     electrons    :     32.55s CPU     39.39s WALL (       1 calls)

     Called by init_run:
     wfcinit      :      0.77s CPU      0.97s WALL (       1 calls)
     wfcinit:atom :      0.00s CPU      0.00s WALL (      49 calls)
     wfcinit:wfcr :      0.73s CPU      0.92s WALL (      49 calls)
     potinit      :      0.07s CPU      0.08s WALL (       1 calls)
     hinit0       :      0.09s CPU      0.09s WALL (       1 calls)

     Called by electrons:
     c_bands      :     28.16s CPU     33.91s WALL (      10 calls)
     sum_band     :      3.60s CPU      4.61s WALL (      10 calls)
     v_of_rho     :      0.04s CPU      0.06s WALL (      11 calls)
     v_h          :      0.00s CPU      0.00s WALL (      11 calls)
     v_xc         :      0.04s CPU      0.05s WALL (      11 calls)
     newd         :      0.36s CPU      0.38s WALL (      11 calls)
     PAW_pot      :      0.42s CPU      0.48s WALL (      11 calls)
     mix_rho      :      0.02s CPU      0.02s WALL (      10 calls)

     Called by c_bands:
     init_us_2    :      0.22s CPU      0.25s WALL (    1029 calls)
     init_us_2:cp :      0.22s CPU      0.25s WALL (    1029 calls)
     cegterg      :     27.04s CPU     32.76s WALL (     490 calls)

     Called by sum_band:
     sum_band:wei :      0.00s CPU      0.00s WALL (      10 calls)
     sum_band:loo :      3.14s CPU      4.13s WALL (      10 calls)
     sum_band:buf :      0.08s CPU      0.11s WALL (     490 calls)
     sum_band:ini :      0.07s CPU      0.09s WALL (     490 calls)
     sum_band:cal :      0.21s CPU      0.27s WALL (     490 calls)
     sum_band:bec :      0.01s CPU      0.01s WALL (     490 calls)
     addusdens    :      0.44s CPU      0.46s WALL (      10 calls)
     addusd:skk   :      0.00s CPU      0.00s WALL (      20 calls)
     addusd:dgemm :      0.31s CPU      0.32s WALL (      20 calls)
     addusd:qvan2 :      0.12s CPU      0.12s WALL (      20 calls)

     Called by *egterg:
     cdiaghg      :      2.92s CPU      3.16s WALL (    2607 calls)
     cegterg:over :      1.70s CPU      1.94s WALL (    2117 calls)
     cegterg:upda :      1.20s CPU      1.25s WALL (    2117 calls)
     cegterg:last :      2.63s CPU      2.68s WALL (    1163 calls)
     h_psi        :     17.45s CPU     22.51s WALL (    2656 calls)
     s_psi        :      0.79s CPU      0.92s WALL (    2656 calls)
     g_psi        :      0.08s CPU      0.08s WALL (    2117 calls)

     Called by h_psi:
     h_psi:calbec :      0.88s CPU      1.12s WALL (    2656 calls)
     vloc_psi     :     15.36s CPU     19.98s WALL (    2656 calls)
     add_vuspsi   :      0.86s CPU      1.05s WALL (    2656 calls)

     General routines
     calbec       :      1.08s CPU      1.39s WALL (    3146 calls)
     fft          :      0.04s CPU      0.05s WALL (     121 calls)
     ffts         :      0.00s CPU      0.00s WALL (      10 calls)
     fftw         :     17.05s CPU     22.25s WALL (  128048 calls)
 
     Parallel routines

     PAW routines
     PAW_pot      :      0.42s CPU      0.48s WALL (      11 calls)
     PAW_symme    :      0.00s CPU      0.00s WALL (      21 calls)
 
     PWSCF        :     33.70s CPU     41.02s WALL

 
   This run was terminated on:  13: 8:39  22Jun2023            

=------------------------------------------------------------------------------=
   JOB DONE.
=------------------------------------------------------------------------------=
