
     Program PWSCF v.7.1 starts on 24Jun2023 at 23:32:12 

     This program is part of the open-source Quantum ESPRESSO suite
     for quantum simulation of materials; please cite
         "P. Giannozzi et al., J. Phys.:Condens. Matter 21 395502 (2009);
         "P. Giannozzi et al., J. Phys.:Condens. Matter 29 465901 (2017);
         "P. Giannozzi et al., J. Chem. Phys. 152 154105 (2020);
          URL http://www.quantum-espresso.org", 
     in publications or presentations arising from this work. More details at
     http://www.quantum-espresso.org/quote

     Parallel version (MPI), running on    10 processors

     MPI processes distributed on     1 nodes
     1496 MiB available memory on the printing compute node when the environment starts
 
     Waiting for input...
     Reading input from standard input

     Current dimensions of program PWSCF are:
     Max number of different atomic species (ntypx) = 10
     Max number of k-points (npk) =  40000
     Max angular momentum in pseudopotentials (lmaxx) =  4
     Message from routine volume:
     axis vectors are left-handed
     file Al.pbe-n-kjpaw_psl.1.0.0.UPF: wavefunction(s)  3S 3P renormalized
     file O.pbe-n-kjpaw_psl.1.0.0.UPF: wavefunction(s)  2S 2P renormalized

     IMPORTANT: XC functional enforced from input :
     Exchange-correlation= VDW-DF2-B86R
                           (   1   4  26   0   2   0   0)
     Any further DFT definition will be discarded
     Please, verify this is what you really want

     Message from routine setup:
     using ibrav=0 with symmetry is DISCOURAGED, use correct ibrav instead
 
     R & G space division:  proc/nbgrp/npool/nimage =      10
     Subspace diagonalization in iterative solution of the eigenvalue problem:
     a serial algorithm will be used

 
     Parallelization info
     --------------------
     sticks:   dense  smooth     PW     G-vecs:    dense   smooth      PW
     Min          62      62     19                 4578     4578     805
     Max          63      63     20                 4585     4585     816
     Sum         625     625    199                45819    45819    8147
 
     Using Slab Decomposition
 


     bravais-lattice index     =            0
     lattice parameter (alat)  =       6.1344  a.u.
     unit-cell volume          =     729.9027 (a.u.)^3
     number of atoms/cell      =            8
     number of atomic types    =            2
     number of electrons       =        36.00
     number of Kohn-Sham states=           70
     kinetic-energy cutoff     =      60.0000  Ry
     charge density cutoff     =     240.0000  Ry
     scf convergence threshold =      1.0E-08
     mixing beta               =       0.5000
     number of iterations used =            8  plain     mixing
     Exchange-correlation= VDW-DF2-B86R
                           (   1   4  26   0   2   0   0)

     celldm(1)=   6.134387  celldm(2)=   0.000000  celldm(3)=   0.000000
     celldm(4)=   0.000000  celldm(5)=   0.000000  celldm(6)=   0.000000

     crystal axes: (cart. coord. in units of alat)
               a(1) = (   0.865734   0.500504   0.000000 )  
               a(2) = (   0.865734  -0.500504   0.000000 )  
               a(3) = (   0.000000   0.000000   3.648627 )  

     reciprocal axes: (cart. coord. in units 2 pi/alat)
               b(1) = (  0.577544  0.998993  0.000000 )  
               b(2) = (  0.577544 -0.998993  0.000000 )  
               b(3) = (  0.000000  0.000000  0.274076 )  


     PseudoPot. # 1 for Al read from file:
     /home/mainadmin/research/danu/pseudo/Al.pbe-n-kjpaw_psl.1.0.0.UPF
     MD5 check sum: 502b6b27b9c6270cab5dd1084b96fa6d
     Pseudo is Projector augmented-wave + core cor, Zval =  3.0
     Generated using &quot;atomic&quot; code by A. Dal Corso  v.6.3
     Shape of augmentation charge: PSQ
     Using radial grid of 1135 points,  6 beta functions with: 
                l(1) =   0
                l(2) =   0
                l(3) =   1
                l(4) =   1
                l(5) =   2
                l(6) =   2
     Q(r) pseudized with 0 coefficients 


     PseudoPot. # 2 for O  read from file:
     /home/mainadmin/research/danu/pseudo/O.pbe-n-kjpaw_psl.1.0.0.UPF
     MD5 check sum: e99d9cef9b487d1ca56f5b95ecd0fd7a
     Pseudo is Projector augmented-wave + core cor, Zval =  6.0
     Generated using &quot;atomic&quot; code by A. Dal Corso  v.6.3
     Shape of augmentation charge: PSQ
     Using radial grid of 1095 points,  4 beta functions with: 
                l(1) =   0
                l(2) =   0
                l(3) =   1
                l(4) =   1
     Q(r) pseudized with 0 coefficients 


     atomic species   valence    mass     pseudopotential
        Al             3.00    26.98100     Al( 1.00)
        O              6.00    15.99900     O ( 1.00)

      2 Sym. Ops. (no inversion) found



   Cartesian axes

     site n.     atom                  positions (alat units)
         1           O   tau(   1) = (   0.5771561   0.0000000   0.0000000  )
         2           Al  tau(   2) = (   0.0000000   0.0000000   0.1680310  )
         3           Al  tau(   3) = (   0.0000000   0.0000000   0.9717503  )
         4           O   tau(   4) = (   0.5771561   0.0000000   1.1392179  )
         5           O   tau(   5) = (   1.1543123   0.0000000   1.8342314  )
         6           Al  tau(   6) = (   0.5771561   0.0000000   1.9928095  )
         7           Al  tau(   7) = (   0.5771561   0.0000000   2.7951295  )
         8           O   tau(   8) = (   1.1543123   0.0000000   2.9547128  )

     number of k points=   140

     Number of k-points >= 100: set verbosity='high' to print them.

     Dense  grid:    45819 G-vectors     FFT dimensions: (  32,  32, 120)

     Estimated max dynamical RAM per process >     105.72 MB

     Estimated total dynamical RAM >       1.03 GB

     Check: negative core charge=   -0.000006

     Initial potential from superposition of free atoms

     starting charge      35.9908, renormalised to      36.0000


     %%%%%%%%%%%%%%%%%%%%%%%%%%%%%%%%%%%%%%%%%%%%%%%%%%%%%%%%%%%%%%%%%%%%%%%%
     %                                                                      %
     % You are using vdW-DF, which was implemented by the Thonhauser group. %
     % Please cite the following two papers that made this development      %
     % possible and the two reviews that describe the various versions:     %
     %                                                                      %
     %   T. Thonhauser et al., PRL 115, 136402 (2015).                      %
     %   T. Thonhauser et al., PRB 76, 125112 (2007).                       %
     %   K. Berland et al., Rep. Prog. Phys. 78, 066501 (2015).             %
     %   D.C. Langreth et al., J. Phys.: Condens. Matter 21, 084203 (2009). %
     %                                                                      %
     % If you are calculating stress with vdW-DF, please also cite:         %
     %                                                                      %
     %   R. Sabatini et al., J. Phys.: Condens. Matter 24, 424209 (2012).   %
     %                                                                      %
     %%%%%%%%%%%%%%%%%%%%%%%%%%%%%%%%%%%%%%%%%%%%%%%%%%%%%%%%%%%%%%%%%%%%%%%%

     %%%%%%%%%%%%%%%%%%%%%%%%%%%%%%%%%%%%%%%%%%%%%%%%%%%%%%%%%%%%%%%%%%%%%%%%
     %                                                                      %
     %  vdW-DF NEWS:                                                        %
     %                                                                      %
     %  * vdW-DF3 is now available. DOI: 10.1021/acs.jctc.0c00471           %
     %    use with input_dft = 'vdW-DF3-opt1' or 'vdW-DF3-opt2'             %
     %                                                                      %
     %  * Unscreened and range-separated vdW-DF hybrid functionals          %
     %    DOI: 10.1063/1.4986522 and 10.1088/1361-648X/ac2ad2               %
     %    use with input_dft = 'vdW-DF-cx0' (etc) and 'vdW-DF-ahcx'         %
     %                                                                      %
     %%%%%%%%%%%%%%%%%%%%%%%%%%%%%%%%%%%%%%%%%%%%%%%%%%%%%%%%%%%%%%%%%%%%%%%%


     Starting wfcs are   32 randomized atomic wfcs +   38 random wfcs
     Checking if some PAW data can be deallocated... 

     total cpu time spent up to now is       12.5 secs

     Self-consistent Calculation

     iteration #  1     ecut=    60.00 Ry     beta= 0.50
     Davidson diagonalization with overlap
     ethr =  1.00E-02,  avg # of iterations =  8.4

     total cpu time spent up to now is       72.9 secs

     total energy              =    -323.84985346 Ry
     estimated scf accuracy    <       1.80331475 Ry

     iteration #  2     ecut=    60.00 Ry     beta= 0.50
     Davidson diagonalization with overlap
     ethr =  5.01E-03,  avg # of iterations =  1.0

     total cpu time spent up to now is       93.5 secs

     total energy              =    -324.28069903 Ry
     estimated scf accuracy    <       0.76248579 Ry

     iteration #  3     ecut=    60.00 Ry     beta= 0.50
     Davidson diagonalization with overlap
     ethr =  2.12E-03,  avg # of iterations =  1.2

     total cpu time spent up to now is      114.4 secs

     total energy              =    -324.44879890 Ry
     estimated scf accuracy    <       0.02829763 Ry

     iteration #  4     ecut=    60.00 Ry     beta= 0.50
     Davidson diagonalization with overlap
     ethr =  7.86E-05,  avg # of iterations =  8.3

     total cpu time spent up to now is      147.1 secs

     total energy              =    -324.46094653 Ry
     estimated scf accuracy    <       0.00440203 Ry

     iteration #  5     ecut=    60.00 Ry     beta= 0.50
     Davidson diagonalization with overlap
     c_bands:  1 eigenvalues not converged
     ethr =  1.22E-05,  avg # of iterations =  4.2

     total cpu time spent up to now is      175.0 secs

     total energy              =    -324.46169481 Ry
     estimated scf accuracy    <       0.00128923 Ry

     iteration #  6     ecut=    60.00 Ry     beta= 0.50
     Davidson diagonalization with overlap
     c_bands:  1 eigenvalues not converged
     ethr =  3.58E-06,  avg # of iterations =  2.7

     total cpu time spent up to now is      198.8 secs

     total energy              =    -324.46198626 Ry
     estimated scf accuracy    <       0.00017725 Ry

     iteration #  7     ecut=    60.00 Ry     beta= 0.50
     Davidson diagonalization with overlap
     c_bands:  1 eigenvalues not converged
     ethr =  4.92E-07,  avg # of iterations =  2.3

     total cpu time spent up to now is      222.8 secs

     total energy              =    -324.46204023 Ry
     estimated scf accuracy    <       0.00001583 Ry

     iteration #  8     ecut=    60.00 Ry     beta= 0.50
     Davidson diagonalization with overlap
     ethr =  4.40E-08,  avg # of iterations =  3.8

     total cpu time spent up to now is      249.1 secs

     total energy              =    -324.46204826 Ry
     estimated scf accuracy    <       0.00000291 Ry

     iteration #  9     ecut=    60.00 Ry     beta= 0.50
     Davidson diagonalization with overlap
     ethr =  8.08E-09,  avg # of iterations =  3.1

     total cpu time spent up to now is      273.9 secs

     total energy              =    -324.46204933 Ry
     estimated scf accuracy    <       0.00000030 Ry

     iteration # 10     ecut=    60.00 Ry     beta= 0.50
     Davidson diagonalization with overlap
     ethr =  8.41E-10,  avg # of iterations =  3.2

     total cpu time spent up to now is      299.4 secs

     total energy              =    -324.46204944 Ry
     estimated scf accuracy    <       0.00000007 Ry

     iteration # 11     ecut=    60.00 Ry     beta= 0.50
     Davidson diagonalization with overlap
     ethr =  2.02E-10,  avg # of iterations =  1.9

     total cpu time spent up to now is      318.7 secs

     End of self-consistent calculation

     Number of k-points >= 100: set verbosity='high' to print the bands.

     highest occupied, lowest unoccupied level (ev):     6.3137    6.4330

!    total energy              =    -324.46204946 Ry
     total all-electron energy =     -2544.420731 Ry
     estimated scf accuracy    <          9.6E-09 Ry

     The total energy is the sum of the following terms:
     one-electron contribution =     -56.92781795 Ry
     hartree contribution      =      50.18817356 Ry
     xc contribution           =     -40.45829364 Ry
     ewald contribution        =    -101.34715875 Ry
     one-center paw contrib.   =    -175.91695268 Ry

     convergence has been achieved in  11 iterations

     Writing all to output data dir ./work/Al2O2.save/
 
     init_run     :     10.52s CPU     12.34s WALL (       1 calls)
     electrons    :    251.52s CPU    306.19s WALL (       1 calls)

     Called by init_run:
     wfcinit      :      5.86s CPU      7.58s WALL (       1 calls)
     potinit      :      4.53s CPU      4.57s WALL (       1 calls)
     hinit0       :      0.10s CPU      0.13s WALL (       1 calls)

     Called by electrons:
     c_bands      :    223.96s CPU    269.57s WALL (      11 calls)
     sum_band     :     25.86s CPU     34.71s WALL (      11 calls)
     v_of_rho     :      4.86s CPU      4.98s WALL (      12 calls)
     newd         :      0.25s CPU      0.27s WALL (      12 calls)
     PAW_pot      :      1.09s CPU      1.19s WALL (      12 calls)
     mix_rho      :      0.02s CPU      0.02s WALL (      11 calls)
     vdW_kernel   :      4.37s CPU      4.38s WALL (       1 calls)

     Called by c_bands:
     init_us_2    :      1.56s CPU      1.65s WALL (    3220 calls)
     init_us_2:cp :      1.55s CPU      1.64s WALL (    3220 calls)
     cegterg      :    216.37s CPU    261.88s WALL (    1540 calls)

     Called by *egterg:
     cdiaghg      :     38.38s CPU     39.06s WALL (    7146 calls)
     h_psi        :    129.07s CPU    172.83s WALL (    7286 calls)
     s_psi        :      6.75s CPU      7.09s WALL (    7286 calls)
     g_psi        :      0.28s CPU      0.28s WALL (    5606 calls)

     Called by h_psi:
     h_psi:calbec :      8.95s CPU     11.31s WALL (    7286 calls)
     vloc_psi     :    110.15s CPU    150.61s WALL (    7286 calls)
     add_vuspsi   :      8.78s CPU      9.71s WALL (    7286 calls)

     General routines
     calbec       :     11.67s CPU     14.68s WALL (    8826 calls)
     fft          :      0.22s CPU      0.31s WALL (     732 calls)
     ffts         :      0.00s CPU      0.00s WALL (      11 calls)
     fftw         :    125.27s CPU    171.59s WALL (  668458 calls)
 
     Parallel routines
 
     PWSCF        :   4m23.26s CPU   5m23.89s WALL

 
   This run was terminated on:  23:37:36  24Jun2023            

=------------------------------------------------------------------------------=
   JOB DONE.
=------------------------------------------------------------------------------=
