
     Program BANDS v.7.1 starts on 17Jun2023 at 12:37:22 

     This program is part of the open-source Quantum ESPRESSO suite
     for quantum simulation of materials; please cite
         "P. Giannozzi et al., J. Phys.:Condens. Matter 21 395502 (2009);
         "P. Giannozzi et al., J. Phys.:Condens. Matter 29 465901 (2017);
         "P. Giannozzi et al., J. Chem. Phys. 152 154105 (2020);
          URL http://www.quantum-espresso.org", 
     in publications or presentations arising from this work. More details at
     http://www.quantum-espresso.org/quote

     Parallel version (MPI), running on    16 processors

     MPI processes distributed on     1 nodes
     R & G space division:  proc/nbgrp/npool/nimage =      16
     52621 MiB available memory on the printing compute node when the environment starts
 

     Reading xml data from directory:

     ./work/Al2O2.save/
     Message from routine volume:
     axis vectors are left-handed
     file Al.pbe-n-kjpaw_psl.1.0.0.UPF: wavefunction(s)  3S 3P renormalized
     file O.pbe-n-kjpaw_psl.1.0.0.UPF: wavefunction(s)  2S 2P renormalized

     IMPORTANT: XC functional enforced from input :
     Exchange-correlation= PBE
                           (   1   4   3   4   0   0   0)
     Any further DFT definition will be discarded
     Please, verify this is what you really want

 
     Parallelization info
     --------------------
     sticks:   dense  smooth     PW     G-vecs:    dense   smooth      PW
     Min          39      39     11                 3791     3791     599
     Max          40      40     12                 3799     3799     614
     Sum         625     625    187                60707    60707    9781
 
     Using Slab Decomposition
 

     Check: negative core charge=   -0.000006
     Reading collected, re-writing distributed wavefunctions
     high-symmetry point:  0.0000 0.0000 0.0000   x coordinate   0.0000
     high-symmetry point:  0.5775 0.3325 0.0000   x coordinate   0.6664
     high-symmetry point:  0.5775 0.0000 0.0000   x coordinate   0.9990
     high-symmetry point:  0.0000 0.0000 0.0000   x coordinate   1.5765

     Plottable bands (eV) written to file AA.bands.gnu
     Bands written to file AA.bands

 **************************************************************************

                    xk=(   0.00000,   0.00000,   0.00000  )

     point group C_s (m)    
     there are  2 classes
     the character table:

       E     s    
A'     1.00  1.00
A''    1.00 -1.00

     the symmetry operations in each class and the name of the first element:

     E        1
                                                                 
     s        2
                                                                 

     Band symmetry, C_s (m)     point group:

     e(  1 -  1) =    -15.90599  eV     1   --> A'             
     e(  2 -  2) =    -15.89828  eV     1   --> A'             
     e(  3 -  3) =    -15.83200  eV     1   --> A'             
     e(  4 -  4) =    -15.82392  eV     1   --> A'             
     e(  5 -  5) =     -2.80148  eV     1   --> A'             
     e(  6 -  6) =     -2.74155  eV     1   --> A'             
     e(  7 -  7) =     -0.77799  eV     1   --> A''            
     e(  8 -  8) =     -0.77434  eV     1   --> A'             
     e(  9 -  9) =     -0.77423  eV     1   --> A''            
     e( 10 - 10) =     -0.77059  eV     1   --> A'             
     e( 11 - 11) =     -0.76705  eV     1   --> A'             
     e( 12 - 12) =     -0.73583  eV     1   --> A''            
     e( 13 - 13) =     -0.73232  eV     1   --> A'             
     e( 14 - 14) =     -0.73130  eV     1   --> A''            
     e( 15 - 15) =     -0.72782  eV     1   --> A'             
     e( 16 - 16) =     -0.55279  eV     1   --> A'             
     e( 17 - 17) =      1.45913  eV     1   --> A'             
     e( 18 - 18) =      1.81116  eV     1   --> A'             
     e( 19 - 19) =      3.97067  eV     1   --> A'             
     e( 20 - 20) =      4.45269  eV     1   --> A'             
     e( 21 - 21) =      6.28913  eV     1   --> A'             
     e( 22 - 22) =      6.92633  eV     1   --> A'             
     e( 23 - 23) =      8.99458  eV     1   --> A'             
     e( 24 - 24) =      9.97479  eV     1   --> A'             
     e( 25 - 25) =     11.56709  eV     1   --> A'             
     e( 26 - 26) =     11.79063  eV     1   --> A''            
     e( 27 - 27) =     11.80887  eV     1   --> A''            
     e( 28 - 28) =     11.81091  eV     1   --> A'             
     e( 29 - 29) =     11.82909  eV     1   --> A'             
     e( 30 - 30) =     13.22617  eV     1   --> A'             
     e( 31 - 31) =     13.31033  eV     1   --> A''            
     e( 32 - 32) =     13.33159  eV     1   --> A'             
     e( 33 - 33) =     13.35496  eV     1   --> A''            
     e( 34 - 34) =     13.37611  eV     1   --> A'             
     e( 35 - 35) =     14.34336  eV     1   --> A'             
     e( 36 - 36) =     15.18556  eV     1   --> A'             
     e( 37 - 37) =     16.25146  eV     1   --> A''            
     e( 38 - 38) =     16.27246  eV     1   --> A'             
     e( 39 - 39) =     16.31590  eV     1   --> A''            
     e( 40 - 40) =     16.33708  eV     1   --> A'             
     e( 41 - 41) =     16.86171  eV     1   --> A'             
     e( 42 - 42) =     18.45798  eV     1   --> A'             
     e( 43 - 43) =     18.96020  eV     1   --> A'             
     e( 44 - 44) =     19.17556  eV     1   --> A''            
     e( 45 - 45) =     19.19973  eV     1   --> A'             
     e( 46 - 46) =     19.28483  eV     1   --> A'             
     e( 47 - 47) =     19.35888  eV     1   --> A''            
     e( 48 - 48) =     19.38293  eV     1   --> A'             
     e( 49 - 49) =     19.38657  eV     1   --> A'             
     e( 50 - 50) =     20.58382  eV     1   --> A'             
     e( 51 - 51) =     20.84121  eV     1   --> A''            
     e( 52 - 52) =     20.86081  eV     1   --> A'             
     e( 53 - 53) =     21.11333  eV     1   --> A''            
     e( 54 - 54) =     21.13378  eV     1   --> A'             
     e( 55 - 55) =     22.58015  eV     1   --> A'             
     e( 56 - 56) =     22.98710  eV     1   --> A''            
     e( 57 - 57) =     23.01217  eV     1   --> A'             
     e( 58 - 58) =     23.21254  eV     1   --> A'             
     e( 59 - 59) =     23.31514  eV     1   --> A'             
     e( 60 - 60) =     23.69615  eV     1   --> A''            
     e( 61 - 61) =     23.71954  eV     1   --> A'             
     e( 62 - 62) =     24.39172  eV     1   --> A''            
     e( 63 - 63) =     24.41808  eV     1   --> A'             
     e( 64 - 64) =     24.71629  eV     1   --> A''            
     e( 65 - 65) =     24.74527  eV     1   --> A'             
     e( 66 - 66) =     25.57542  eV     1   --> A'             
     e( 67 - 67) =     26.59273  eV     1   --> A''            
     e( 68 - 68) =     26.60277  eV     1   --> A'             
     e( 69 - 69) =     26.61627  eV     1   --> A'             
     e( 70 - 70) =     26.89054  eV     1   --> A'             

 **************************************************************************

 **************************************************************************

                    xk=(   0.01925,   0.01108,   0.00000  )

     point group C_1 (1)    
     there are  1 classes
     the character table:

       E    
A      1.00

     the symmetry operations in each class and the name of the first element:

     E        1
                                                                 

     Band symmetry, C_1 (1)     point group:

     e(  1 -  1) =    -15.90413  eV     1   --> A              
     e(  2 -  2) =    -15.89643  eV     1   --> A              
     e(  3 -  3) =    -15.83024  eV     1   --> A              
     e(  4 -  4) =    -15.82218  eV     1   --> A              
     e(  5 -  5) =     -2.79901  eV     1   --> A              
     e(  6 -  6) =     -2.73950  eV     1   --> A              
     e(  7 -  7) =     -0.79157  eV     1   --> A              
     e(  8 -  8) =     -0.78560  eV     1   --> A              
     e(  9 -  9) =     -0.77909  eV     1   --> A              
     e( 10 - 10) =     -0.77527  eV     1   --> A              
     e( 11 - 11) =     -0.76831  eV     1   --> A              
     e( 12 - 12) =     -0.74723  eV     1   --> A              
     e( 13 - 13) =     -0.74492  eV     1   --> A              
     e( 14 - 14) =     -0.73676  eV     1   --> A              
     e( 15 - 15) =     -0.73232  eV     1   --> A              
     e( 16 - 16) =     -0.54863  eV     1   --> A              
     e( 17 - 17) =      1.47280  eV     1   --> A              
     e( 18 - 18) =      1.82165  eV     1   --> A              
     e( 19 - 19) =      3.98991  eV     1   --> A              
     e( 20 - 20) =      4.47187  eV     1   --> A              
     e( 21 - 21) =      6.29479  eV     1   --> A              
     e( 22 - 22) =      6.93544  eV     1   --> A              
     e( 23 - 23) =      8.99691  eV     1   --> A              
     e( 24 - 24) =      9.98136  eV     1   --> A              
     e( 25 - 25) =     11.56106  eV     1   --> A              
     e( 26 - 26) =     11.75313  eV     1   --> A              
     e( 27 - 27) =     11.76846  eV     1   --> A              
     e( 28 - 28) =     11.79898  eV     1   --> A              
     e( 29 - 29) =     11.81698  eV     1   --> A              
     e( 30 - 30) =     13.16098  eV     1   --> A              
     e( 31 - 31) =     13.32361  eV     1   --> A              
     e( 32 - 32) =     13.34584  eV     1   --> A              
     e( 33 - 33) =     13.36936  eV     1   --> A              
     e( 34 - 34) =     13.37299  eV     1   --> A              
     e( 35 - 35) =     14.37174  eV     1   --> A              
     e( 36 - 36) =     15.23388  eV     1   --> A              
     e( 37 - 37) =     16.20957  eV     1   --> A              
     e( 38 - 38) =     16.24915  eV     1   --> A              
     e( 39 - 39) =     16.25756  eV     1   --> A              
     e( 40 - 40) =     16.31446  eV     1   --> A              
     e( 41 - 41) =     16.92981  eV     1   --> A              
     e( 42 - 42) =     18.46326  eV     1   --> A              
     e( 43 - 43) =     18.98882  eV     1   --> A              
     e( 44 - 44) =     19.10425  eV     1   --> A              
     e( 45 - 45) =     19.20834  eV     1   --> A              
     e( 46 - 46) =     19.31674  eV     1   --> A              
     e( 47 - 47) =     19.33429  eV     1   --> A              
     e( 48 - 48) =     19.39360  eV     1   --> A              
     e( 49 - 49) =     19.51044  eV     1   --> A              
     e( 50 - 50) =     20.65221  eV     1   --> A              
     e( 51 - 51) =     20.80959  eV     1   --> A              
     e( 52 - 52) =     20.82911  eV     1   --> A              
     e( 53 - 53) =     21.09329  eV     1   --> A              
     e( 54 - 54) =     21.11401  eV     1   --> A              
     e( 55 - 55) =     22.61408  eV     1   --> A              
     e( 56 - 56) =     22.97303  eV     1   --> A              
     e( 57 - 57) =     23.02368  eV     1   --> A              
     e( 58 - 58) =     23.17533  eV     1   --> A              
     e( 59 - 59) =     23.34661  eV     1   --> A              
     e( 60 - 60) =     23.69851  eV     1   --> A              
     e( 61 - 61) =     23.72937  eV     1   --> A              
     e( 62 - 62) =     24.35932  eV     1   --> A              
     e( 63 - 63) =     24.40124  eV     1   --> A              
     e( 64 - 64) =     24.64998  eV     1   --> A              
     e( 65 - 65) =     24.72823  eV     1   --> A              
     e( 66 - 66) =     25.65499  eV     1   --> A              
     e( 67 - 67) =     26.57979  eV     1   --> A              
     e( 68 - 68) =     26.58107  eV     1   --> A              
     e( 69 - 69) =     26.64367  eV     1   --> A              
     e( 70 - 70) =     26.93648  eV     1   --> A              

 **************************************************************************

 **************************************************************************

                    xk=(   0.03850,   0.02217,   0.00000  )

     Band symmetry, C_1 (1)     point group:

     e(  1 -  1) =    -15.89858  eV     1   --> A              
     e(  2 -  2) =    -15.89090  eV     1   --> A              
     e(  3 -  3) =    -15.82499  eV     1   --> A              
     e(  4 -  4) =    -15.81696  eV     1   --> A              
     e(  5 -  5) =     -2.79179  eV     1   --> A              
     e(  6 -  6) =     -2.73359  eV     1   --> A              
     e(  7 -  7) =     -0.83787  eV     1   --> A              
     e(  8 -  8) =     -0.82550  eV     1   --> A              
     e(  9 -  9) =     -0.80351  eV     1   --> A              
     e( 10 - 10) =     -0.79614  eV     1   --> A              
     e( 11 - 11) =     -0.78588  eV     1   --> A              
     e( 12 - 12) =     -0.78205  eV     1   --> A              
     e( 13 - 13) =     -0.75039  eV     1   --> A              
     e( 14 - 14) =     -0.74303  eV     1   --> A              
     e( 15 - 15) =     -0.73865  eV     1   --> A              
     e( 16 - 16) =     -0.53789  eV     1   --> A              
     e( 17 - 17) =      1.51234  eV     1   --> A              
     e( 18 - 18) =      1.85208  eV     1   --> A              
     e( 19 - 19) =      4.04665  eV     1   --> A              
     e( 20 - 20) =      4.52855  eV     1   --> A              
     e( 21 - 21) =      6.31166  eV     1   --> A              
     e( 22 - 22) =      6.96258  eV     1   --> A              
     e( 23 - 23) =      9.00385  eV     1   --> A              
     e( 24 - 24) =     10.00067  eV     1   --> A              
     e( 25 - 25) =     11.54279  eV     1   --> A              
     e( 26 - 26) =     11.60988  eV     1   --> A              
     e( 27 - 27) =     11.62062  eV     1   --> A              
     e( 28 - 28) =     11.80187  eV     1   --> A              
     e( 29 - 29) =     11.81961  eV     1   --> A              
     e( 30 - 30) =     13.03885  eV     1   --> A              
     e( 31 - 31) =     13.28661  eV     1   --> A              
     e( 32 - 32) =     13.35110  eV     1   --> A              
     e( 33 - 33) =     13.39764  eV     1   --> A              
     e( 34 - 34) =     13.42375  eV     1   --> A              
     e( 35 - 35) =     14.44101  eV     1   --> A              
     e( 36 - 36) =     15.36444  eV     1   --> A              
     e( 37 - 37) =     16.06386  eV     1   --> A              
     e( 38 - 38) =     16.10737  eV     1   --> A              
     e( 39 - 39) =     16.21809  eV     1   --> A              
     e( 40 - 40) =     16.28668  eV     1   --> A              
     e( 41 - 41) =     17.07571  eV     1   --> A              
     e( 42 - 42) =     18.47893  eV     1   --> A              
     e( 43 - 43) =     18.97679  eV     1   --> A              
     e( 44 - 44) =     19.06809  eV     1   --> A              
     e( 45 - 45) =     19.24013  eV     1   --> A              
     e( 46 - 46) =     19.26854  eV     1   --> A              
     e( 47 - 47) =     19.40740  eV     1   --> A              
     e( 48 - 48) =     19.46839  eV     1   --> A              
     e( 49 - 49) =     19.75269  eV     1   --> A              
     e( 50 - 50) =     20.71885  eV     1   --> A              
     e( 51 - 51) =     20.74203  eV     1   --> A              
     e( 52 - 52) =     20.83383  eV     1   --> A              
     e( 53 - 53) =     21.03574  eV     1   --> A              
     e( 54 - 54) =     21.05922  eV     1   --> A              
     e( 55 - 55) =     22.67913  eV     1   --> A              
     e( 56 - 56) =     22.89698  eV     1   --> A              
     e( 57 - 57) =     23.09387  eV     1   --> A              
     e( 58 - 58) =     23.09864  eV     1   --> A              
     e( 59 - 59) =     23.43913  eV     1   --> A              
     e( 60 - 60) =     23.66987  eV     1   --> A              
     e( 61 - 61) =     23.79347  eV     1   --> A              
     e( 62 - 62) =     24.25435  eV     1   --> A              
     e( 63 - 63) =     24.37208  eV     1   --> A              
     e( 64 - 64) =     24.44822  eV     1   --> A              
     e( 65 - 65) =     24.73195  eV     1   --> A              
     e( 66 - 66) =     25.84592  eV     1   --> A              
     e( 67 - 67) =     26.51374  eV     1   --> A              
     e( 68 - 68) =     26.52067  eV     1   --> A              
     e( 69 - 69) =     26.74794  eV     1   --> A              
     e( 70 - 70) =     27.04838  eV     1   --> A              

 **************************************************************************

 **************************************************************************

                    xk=(   0.05775,   0.03325,   0.00000  )

     Band symmetry, C_1 (1)     point group:

     e(  1 -  1) =    -15.88939  eV     1   --> A              
     e(  2 -  2) =    -15.88175  eV     1   --> A              
     e(  3 -  3) =    -15.81632  eV     1   --> A              
     e(  4 -  4) =    -15.80832  eV     1   --> A              
     e(  5 -  5) =     -2.78042  eV     1   --> A              
     e(  6 -  6) =     -2.72444  eV     1   --> A              
     e(  7 -  7) =     -0.90996  eV     1   --> A              
     e(  8 -  8) =     -0.88852  eV     1   --> A              
     e(  9 -  9) =     -0.87848  eV     1   --> A              
     e( 10 - 10) =     -0.87302  eV     1   --> A              
     e( 11 - 11) =     -0.79705  eV     1   --> A              
     e( 12 - 12) =     -0.79317  eV     1   --> A              
     e( 13 - 13) =     -0.75378  eV     1   --> A              
     e( 14 - 14) =     -0.74908  eV     1   --> A              
     e( 15 - 15) =     -0.73846  eV     1   --> A              
     e( 16 - 16) =     -0.52294  eV     1   --> A              
     e( 17 - 17) =      1.57374  eV     1   --> A              
     e( 18 - 18) =      1.89969  eV     1   --> A              
     e( 19 - 19) =      4.13821  eV     1   --> A              
     e( 20 - 20) =      4.62028  eV     1   --> A              
     e( 21 - 21) =      6.33935  eV     1   --> A              
     e( 22 - 22) =      7.00713  eV     1   --> A              
     e( 23 - 23) =      9.01519  eV     1   --> A              
     e( 24 - 24) =     10.03122  eV     1   --> A              
     e( 25 - 25) =     11.39005  eV     1   --> A              
     e( 26 - 26) =     11.40752  eV     1   --> A              
     e( 27 - 27) =     11.51172  eV     1   --> A              
     e( 28 - 28) =     11.80700  eV     1   --> A              
     e( 29 - 29) =     11.82407  eV     1   --> A              
     e( 30 - 30) =     12.88692  eV     1   --> A              
     e( 31 - 31) =     13.19081  eV     1   --> A              
     e( 32 - 32) =     13.39327  eV     1   --> A              
     e( 33 - 33) =     13.44274  eV     1   --> A              
     e( 34 - 34) =     13.47273  eV     1   --> A              
     e( 35 - 35) =     14.51253  eV     1   --> A              
     e( 36 - 36) =     15.51940  eV     1   --> A              
     e( 37 - 37) =     15.88791  eV     1   --> A              
     e( 38 - 38) =     15.95507  eV     1   --> A              
     e( 39 - 39) =     16.16952  eV     1   --> A              
     e( 40 - 40) =     16.23579  eV     1   --> A              
     e( 41 - 41) =     17.24868  eV     1   --> A              
     e( 42 - 42) =     18.50444  eV     1   --> A              
     e( 43 - 43) =     18.86255  eV     1   --> A              
     e( 44 - 44) =     19.13655  eV     1   --> A              
     e( 45 - 45) =     19.17535  eV     1   --> A              
     e( 46 - 46) =     19.33809  eV     1   --> A              
     e( 47 - 47) =     19.53972  eV     1   --> A              
     e( 48 - 48) =     19.58145  eV     1   --> A              
     e( 49 - 49) =     20.06976  eV     1   --> A              
     e( 50 - 50) =     20.57753  eV     1   --> A              
     e( 51 - 51) =     20.62727  eV     1   --> A              
     e( 52 - 52) =     20.94765  eV     1   --> A              
     e( 53 - 53) =     20.98456  eV     1   --> A              
     e( 54 - 54) =     21.09109  eV     1   --> A              
     e( 55 - 55) =     22.62263  eV     1   --> A              
     e( 56 - 56) =     22.79993  eV     1   --> A              
     e( 57 - 57) =     23.13202  eV     1   --> A              
     e( 58 - 58) =     23.17318  eV     1   --> A              
     e( 59 - 59) =     23.58672  eV     1   --> A              
     e( 60 - 60) =     23.62587  eV     1   --> A              
     e( 61 - 61) =     23.89286  eV     1   --> A              
     e( 62 - 62) =     24.08286  eV     1   --> A              
     e( 63 - 63) =     24.21284  eV     1   --> A              
     e( 64 - 64) =     24.35407  eV     1   --> A              
     e( 65 - 65) =     24.73422  eV     1   --> A              
     e( 66 - 66) =     26.07908  eV     1   --> A              
     e( 67 - 67) =     26.41221  eV     1   --> A              
     e( 68 - 68) =     26.46659  eV     1   --> A              
     e( 69 - 69) =     26.86439  eV     1   --> A              
     e( 70 - 70) =     27.17212  eV     1   --> A              

 **************************************************************************

 **************************************************************************

                    xk=(   0.07701,   0.04434,   0.00000  )

     Band symmetry, C_1 (1)     point group:

     e(  1 -  1) =    -15.87668  eV     1   --> A              
     e(  2 -  2) =    -15.86909  eV     1   --> A              
     e(  3 -  3) =    -15.80431  eV     1   --> A              
     e(  4 -  4) =    -15.79636  eV     1   --> A              
     e(  5 -  5) =     -2.76597  eV     1   --> A              
     e(  6 -  6) =     -2.71320  eV     1   --> A              
     e(  7 -  7) =     -1.00099  eV     1   --> A              
     e(  8 -  8) =     -0.98087  eV     1   --> A              
     e(  9 -  9) =     -0.97528  eV     1   --> A              
     e( 10 - 10) =     -0.96475  eV     1   --> A              
     e( 11 - 11) =     -0.81283  eV     1   --> A              
     e( 12 - 12) =     -0.80882  eV     1   --> A              
     e( 13 - 13) =     -0.76848  eV     1   --> A              
     e( 14 - 14) =     -0.76377  eV     1   --> A              
     e( 15 - 15) =     -0.72075  eV     1   --> A              
     e( 16 - 16) =     -0.50453  eV     1   --> A              
     e( 17 - 17) =      1.65185  eV     1   --> A              
     e( 18 - 18) =      1.96073  eV     1   --> A              
     e( 19 - 19) =      4.26072  eV     1   --> A              
     e( 20 - 20) =      4.74348  eV     1   --> A              
     e( 21 - 21) =      6.37725  eV     1   --> A              
     e( 22 - 22) =      7.06806  eV     1   --> A              
     e( 23 - 23) =      9.03059  eV     1   --> A              
     e( 24 - 24) =     10.06918  eV     1   --> A              
     e( 25 - 25) =     11.12060  eV     1   --> A              
     e( 26 - 26) =     11.15651  eV     1   --> A              
     e( 27 - 27) =     11.46700  eV     1   --> A              
     e( 28 - 28) =     11.81082  eV     1   --> A              
     e( 29 - 29) =     11.82673  eV     1   --> A              
     e( 30 - 30) =     12.71143  eV     1   --> A              
     e( 31 - 31) =     13.06947  eV     1   --> A              
     e( 32 - 32) =     13.44362  eV     1   --> A              
     e( 33 - 33) =     13.50560  eV     1   --> A              
     e( 34 - 34) =     13.52434  eV     1   --> A              
     e( 35 - 35) =     14.54245  eV     1   --> A              
     e( 36 - 36) =     15.46702  eV     1   --> A              
     e( 37 - 37) =     15.84489  eV     1   --> A              
     e( 38 - 38) =     15.90370  eV     1   --> A              
     e( 39 - 39) =     16.11562  eV     1   --> A              
     e( 40 - 40) =     16.15766  eV     1   --> A              
     e( 41 - 41) =     17.43790  eV     1   --> A              
     e( 42 - 42) =     18.53882  eV     1   --> A              
     e( 43 - 43) =     18.77697  eV     1   --> A              
     e( 44 - 44) =     19.05735  eV     1   --> A              
     e( 45 - 45) =     19.26152  eV     1   --> A              
     e( 46 - 46) =     19.40612  eV     1   --> A              
     e( 47 - 47) =     19.67739  eV     1   --> A              
     e( 48 - 48) =     19.71769  eV     1   --> A              
     e( 49 - 49) =     20.39784  eV     1   --> A              
     e( 50 - 50) =     20.44348  eV     1   --> A              
     e( 51 - 51) =     20.53766  eV     1   --> A              
     e( 52 - 52) =     20.83897  eV     1   --> A              
     e( 53 - 53) =     20.92322  eV     1   --> A              
     e( 54 - 54) =     21.40161  eV     1   --> A              
     e( 55 - 55) =     22.40485  eV     1   --> A              
     e( 56 - 56) =     22.70436  eV     1   --> A              
     e( 57 - 57) =     23.18872  eV     1   --> A              
     e( 58 - 58) =     23.29840  eV     1   --> A              
     e( 59 - 59) =     23.57681  eV     1   --> A              
     e( 60 - 60) =     23.77949  eV     1   --> A              
     e( 61 - 61) =     23.87800  eV     1   --> A              
     e( 62 - 62) =     24.01146  eV     1   --> A              
     e( 63 - 63) =     24.03369  eV     1   --> A              
     e( 64 - 64) =     24.35909  eV     1   --> A              
     e( 65 - 65) =     24.73254  eV     1   --> A              
     e( 66 - 66) =     26.28571  eV     1   --> A              
     e( 67 - 67) =     26.29608  eV     1   --> A              
     e( 68 - 68) =     26.44780  eV     1   --> A              
     e( 69 - 69) =     26.96040  eV     1   --> A              
     e( 70 - 70) =     27.27160  eV     1   --> A              

 **************************************************************************

 **************************************************************************

                    xk=(   0.09626,   0.05542,   0.00000  )

     Band symmetry, C_1 (1)     point group:

     e(  1 -  1) =    -15.86058  eV     1   --> A              
     e(  2 -  2) =    -15.85305  eV     1   --> A              
     e(  3 -  3) =    -15.78911  eV     1   --> A              
     e(  4 -  4) =    -15.78123  eV     1   --> A              
     e(  5 -  5) =     -2.75008  eV     1   --> A              
     e(  6 -  6) =     -2.70162  eV     1   --> A              
     e(  7 -  7) =     -1.10507  eV     1   --> A              
     e(  8 -  8) =     -1.10090  eV     1   --> A              
     e(  9 -  9) =     -1.09361  eV     1   --> A              
     e( 10 - 10) =     -1.05547  eV     1   --> A              
     e( 11 - 11) =     -0.83338  eV     1   --> A              
     e( 12 - 12) =     -0.82924  eV     1   --> A              
     e( 13 - 13) =     -0.78767  eV     1   --> A              
     e( 14 - 14) =     -0.78286  eV     1   --> A              
     e( 15 - 15) =     -0.69792  eV     1   --> A              
     e( 16 - 16) =     -0.48272  eV     1   --> A              
     e( 17 - 17) =      1.74148  eV     1   --> A              
     e( 18 - 18) =      2.03119  eV     1   --> A              
     e( 19 - 19) =      4.40977  eV     1   --> A              
     e( 20 - 20) =      4.89395  eV     1   --> A              
     e( 21 - 21) =      6.42458  eV     1   --> A              
     e( 22 - 22) =      7.14398  eV     1   --> A              
     e( 23 - 23) =      9.04956  eV     1   --> A              
     e( 24 - 24) =     10.10384  eV     1   --> A              
     e( 25 - 25) =     10.82311  eV     1   --> A              
     e( 26 - 26) =     10.89452  eV     1   --> A              
     e( 27 - 27) =     11.40767  eV     1   --> A              
     e( 28 - 28) =     11.80953  eV     1   --> A              
     e( 29 - 29) =     11.82371  eV     1   --> A              
     e( 30 - 30) =     12.51841  eV     1   --> A              
     e( 31 - 31) =     12.93265  eV     1   --> A              
     e( 32 - 32) =     13.48965  eV     1   --> A              
     e( 33 - 33) =     13.58521  eV     1   --> A              
     e( 34 - 34) =     13.59327  eV     1   --> A              
     e( 35 - 35) =     14.50359  eV     1   --> A              
     e( 36 - 36) =     15.22035  eV     1   --> A              
     e( 37 - 37) =     15.79486  eV     1   --> A              
     e( 38 - 38) =     15.95183  eV     1   --> A              
     e( 39 - 39) =     16.05905  eV     1   --> A              
     e( 40 - 40) =     16.20108  eV     1   --> A              
     e( 41 - 41) =     17.63988  eV     1   --> A              
     e( 42 - 42) =     18.58052  eV     1   --> A              
     e( 43 - 43) =     18.73077  eV     1   --> A              
     e( 44 - 44) =     19.02072  eV     1   --> A              
     e( 45 - 45) =     19.24915  eV     1   --> A              
     e( 46 - 46) =     19.47221  eV     1   --> A              
     e( 47 - 47) =     19.75529  eV     1   --> A              
     e( 48 - 48) =     19.86658  eV     1   --> A              
     e( 49 - 49) =     20.19814  eV     1   --> A              
     e( 50 - 50) =     20.54746  eV     1   --> A              
     e( 51 - 51) =     20.72114  eV     1   --> A              
     e( 52 - 52) =     20.84930  eV     1   --> A              
     e( 53 - 53) =     20.93654  eV     1   --> A              
     e( 54 - 54) =     21.75450  eV     1   --> A              
     e( 55 - 55) =     22.13701  eV     1   --> A              
     e( 56 - 56) =     22.61677  eV     1   --> A              
     e( 57 - 57) =     23.06102  eV     1   --> A              
     e( 58 - 58) =     23.34734  eV     1   --> A              
     e( 59 - 59) =     23.52919  eV     1   --> A              
     e( 60 - 60) =     23.80119  eV     1   --> A              
     e( 61 - 61) =     23.99432  eV     1   --> A              
     e( 62 - 62) =     24.00405  eV     1   --> A              
     e( 63 - 63) =     24.13421  eV     1   --> A              
     e( 64 - 64) =     24.39588  eV     1   --> A              
     e( 65 - 65) =     24.72938  eV     1   --> A              
     e( 66 - 66) =     26.14611  eV     1   --> A              
     e( 67 - 67) =     26.44465  eV     1   --> A              
     e( 68 - 68) =     26.47398  eV     1   --> A              
     e( 69 - 69) =     27.03451  eV     1   --> A              
     e( 70 - 70) =     27.35235  eV     1   --> A              

 **************************************************************************

 **************************************************************************

                    xk=(   0.11551,   0.06651,   0.00000  )

     Band symmetry, C_1 (1)     point group:

     e(  1 -  1) =    -15.84128  eV     1   --> A              
     e(  2 -  2) =    -15.83384  eV     1   --> A              
     e(  3 -  3) =    -15.77089  eV     1   --> A              
     e(  4 -  4) =    -15.76310  eV     1   --> A              
     e(  5 -  5) =     -2.73517  eV     1   --> A              
     e(  6 -  6) =     -2.69214  eV     1   --> A              
     e(  7 -  7) =     -1.23910  eV     1   --> A              
     e(  8 -  8) =     -1.22993  eV     1   --> A              
     e(  9 -  9) =     -1.20776  eV     1   --> A              
     e( 10 - 10) =     -1.14861  eV     1   --> A              
     e( 11 - 11) =     -0.85892  eV     1   --> A              
     e( 12 - 12) =     -0.85459  eV     1   --> A              
     e( 13 - 13) =     -0.81144  eV     1   --> A              
     e( 14 - 14) =     -0.80655  eV     1   --> A              
     e( 15 - 15) =     -0.67039  eV     1   --> A              
     e( 16 - 16) =     -0.45750  eV     1   --> A              
     e( 17 - 17) =      1.83813  eV     1   --> A              
     e( 18 - 18) =      2.10740  eV     1   --> A              
     e( 19 - 19) =      4.58091  eV     1   --> A              
     e( 20 - 20) =      5.06736  eV     1   --> A              
     e( 21 - 21) =      6.48042  eV     1   --> A              
     e( 22 - 22) =      7.23308  eV     1   --> A              
     e( 23 - 23) =      9.07153  eV     1   --> A              
     e( 24 - 24) =     10.10018  eV     1   --> A              
     e( 25 - 25) =     10.51124  eV     1   --> A              
     e( 26 - 26) =     10.66900  eV     1   --> A              
     e( 27 - 27) =     11.33288  eV     1   --> A              
     e( 28 - 28) =     11.79815  eV     1   --> A              
     e( 29 - 29) =     11.81058  eV     1   --> A              
     e( 30 - 30) =     12.31417  eV     1   --> A              
     e( 31 - 31) =     12.78979  eV     1   --> A              
     e( 32 - 32) =     13.52651  eV     1   --> A              
     e( 33 - 33) =     13.68042  eV     1   --> A              
     e( 34 - 34) =     13.68547  eV     1   --> A              
     e( 35 - 35) =     14.40306  eV     1   --> A              
     e( 36 - 36) =     14.94346  eV     1   --> A              
     e( 37 - 37) =     15.75762  eV     1   --> A              
     e( 38 - 38) =     15.86345  eV     1   --> A              
     e( 39 - 39) =     15.98620  eV     1   --> A              
     e( 40 - 40) =     16.43185  eV     1   --> A              
     e( 41 - 41) =     17.84650  eV     1   --> A              
     e( 42 - 42) =     18.62693  eV     1   --> A              
     e( 43 - 43) =     18.72699  eV     1   --> A              
     e( 44 - 44) =     19.03466  eV     1   --> A              
     e( 45 - 45) =     19.09421  eV     1   --> A              
     e( 46 - 46) =     19.53914  eV     1   --> A              
     e( 47 - 47) =     19.71165  eV     1   --> A              
     e( 48 - 48) =     19.99230  eV     1   --> A              
     e( 49 - 49) =     20.02514  eV     1   --> A              
     e( 50 - 50) =     20.60439  eV     1   --> A              
     e( 51 - 51) =     20.69787  eV     1   --> A              
     e( 52 - 52) =     21.08456  eV     1   --> A              
     e( 53 - 53) =     21.23602  eV     1   --> A              
     e( 54 - 54) =     21.90175  eV     1   --> A              
     e( 55 - 55) =     22.14257  eV     1   --> A              
     e( 56 - 56) =     22.52630  eV     1   --> A              
     e( 57 - 57) =     22.82992  eV     1   --> A              
     e( 58 - 58) =     23.11552  eV     1   --> A              
     e( 59 - 59) =     23.48617  eV     1   --> A              
     e( 60 - 60) =     23.97285  eV     1   --> A              
     e( 61 - 61) =     24.06020  eV     1   --> A              
     e( 62 - 62) =     24.24360  eV     1   --> A              
     e( 63 - 63) =     24.24655  eV     1   --> A              
     e( 64 - 64) =     24.48234  eV     1   --> A              
     e( 65 - 65) =     24.73218  eV     1   --> A              
     e( 66 - 66) =     26.00638  eV     1   --> A              
     e( 67 - 67) =     26.50494  eV     1   --> A              
     e( 68 - 68) =     26.54252  eV     1   --> A              
     e( 69 - 69) =     27.09845  eV     1   --> A              
     e( 70 - 70) =     27.14366  eV     1   --> A              

 **************************************************************************

 **************************************************************************

                    xk=(   0.13476,   0.07759,   0.00000  )

     Band symmetry, C_1 (1)     point group:

     e(  1 -  1) =    -15.81902  eV     1   --> A              
     e(  2 -  2) =    -15.81167  eV     1   --> A              
     e(  3 -  3) =    -15.74987  eV     1   --> A              
     e(  4 -  4) =    -15.74219  eV     1   --> A              
     e(  5 -  5) =     -2.72457  eV     1   --> A              
     e(  6 -  6) =     -2.68799  eV     1   --> A              
     e(  7 -  7) =     -1.38669  eV     1   --> A              
     e(  8 -  8) =     -1.37489  eV     1   --> A              
     e(  9 -  9) =     -1.31000  eV     1   --> A              
     e( 10 - 10) =     -1.23767  eV     1   --> A              
     e( 11 - 11) =     -0.88969  eV     1   --> A              
     e( 12 - 12) =     -0.88516  eV     1   --> A              
     e( 13 - 13) =     -0.83999  eV     1   --> A              
     e( 14 - 14) =     -0.83498  eV     1   --> A              
     e( 15 - 15) =     -0.63851  eV     1   --> A              
     e( 16 - 16) =     -0.42895  eV     1   --> A              
     e( 17 - 17) =      1.93820  eV     1   --> A              
     e( 18 - 18) =      2.18629  eV     1   --> A              
     e( 19 - 19) =      4.77005  eV     1   --> A              
     e( 20 - 20) =      5.25960  eV     1   --> A              
     e( 21 - 21) =      6.54379  eV     1   --> A              
     e( 22 - 22) =      7.33319  eV     1   --> A              
     e( 23 - 23) =      9.09580  eV     1   --> A              
     e( 24 - 24) =      9.97981  eV     1   --> A              
     e( 25 - 25) =     10.19417  eV     1   --> A              
     e( 26 - 26) =     10.56662  eV     1   --> A              
     e( 27 - 27) =     11.24231  eV     1   --> A              
     e( 28 - 28) =     11.77008  eV     1   --> A              
     e( 29 - 29) =     11.78371  eV     1   --> A              
     e( 30 - 30) =     12.10472  eV     1   --> A              
     e( 31 - 31) =     12.64885  eV     1   --> A              
     e( 32 - 32) =     13.55884  eV     1   --> A              
     e( 33 - 33) =     13.78989  eV     1   --> A              
     e( 34 - 34) =     13.79604  eV     1   --> A              
     e( 35 - 35) =     14.26921  eV     1   --> A              
     e( 36 - 36) =     14.66438  eV     1   --> A              
     e( 37 - 37) =     15.64801  eV     1   --> A              
     e( 38 - 38) =     15.75864  eV     1   --> A              
     e( 39 - 39) =     16.01110  eV     1   --> A              
     e( 40 - 40) =     16.66401  eV     1   --> A              
     e( 41 - 41) =     18.04513  eV     1   --> A              
     e( 42 - 42) =     18.67313  eV     1   --> A              
     e( 43 - 43) =     18.75607  eV     1   --> A              
     e( 44 - 44) =     18.83122  eV     1   --> A              
     e( 45 - 45) =     19.09845  eV     1   --> A              
     e( 46 - 46) =     19.55698  eV     1   --> A              
     e( 47 - 47) =     19.61203  eV     1   --> A              
     e( 48 - 48) =     19.78825  eV     1   --> A              
     e( 49 - 49) =     20.19769  eV     1   --> A              
     e( 50 - 50) =     20.49699  eV     1   --> A              
     e( 51 - 51) =     20.94979  eV     1   --> A              
     e( 52 - 52) =     21.35859  eV     1   --> A              
     e( 53 - 53) =     21.36003  eV     1   --> A              
     e( 54 - 54) =     21.94939  eV     1   --> A              
     e( 55 - 55) =     22.38488  eV     1   --> A              
     e( 56 - 56) =     22.55823  eV     1   --> A              
     e( 57 - 57) =     22.61861  eV     1   --> A              
     e( 58 - 58) =     22.81423  eV     1   --> A              
     e( 59 - 59) =     23.44802  eV     1   --> A              
     e( 60 - 60) =     24.14301  eV     1   --> A              
     e( 61 - 61) =     24.15258  eV     1   --> A              
     e( 62 - 62) =     24.33520  eV     1   --> A              
     e( 63 - 63) =     24.47744  eV     1   --> A              
     e( 64 - 64) =     24.64884  eV     1   --> A              
     e( 65 - 65) =     24.75525  eV     1   --> A              
     e( 66 - 66) =     25.88196  eV     1   --> A              
     e( 67 - 67) =     26.50448  eV     1   --> A              
     e( 68 - 68) =     26.64314  eV     1   --> A              
     e( 69 - 69) =     26.89591  eV     1   --> A              
     e( 70 - 70) =     27.06190  eV     1   --> A              

 **************************************************************************

 **************************************************************************

                    xk=(   0.15401,   0.08868,   0.00000  )

     Band symmetry, C_1 (1)     point group:

     e(  1 -  1) =    -15.79403  eV     1   --> A              
     e(  2 -  2) =    -15.78679  eV     1   --> A              
     e(  3 -  3) =    -15.72631  eV     1   --> A              
     e(  4 -  4) =    -15.71873  eV     1   --> A              
     e(  5 -  5) =     -2.72250  eV     1   --> A              
     e(  6 -  6) =     -2.69298  eV     1   --> A              
     e(  7 -  7) =     -1.54113  eV     1   --> A              
     e(  8 -  8) =     -1.52688  eV     1   --> A              
     e(  9 -  9) =     -1.40001  eV     1   --> A              
     e( 10 - 10) =     -1.31522  eV     1   --> A              
     e( 11 - 11) =     -0.92588  eV     1   --> A              
     e( 12 - 12) =     -0.92113  eV     1   --> A              
     e( 13 - 13) =     -0.87348  eV     1   --> A              
     e( 14 - 14) =     -0.86828  eV     1   --> A              
     e( 15 - 15) =     -0.60262  eV     1   --> A              
     e( 16 - 16) =     -0.39719  eV     1   --> A              
     e( 17 - 17) =      2.03893  eV     1   --> A              
     e( 18 - 18) =      2.26550  eV     1   --> A              
     e( 19 - 19) =      4.97362  eV     1   --> A              
     e( 20 - 20) =      5.46698  eV     1   --> A              
     e( 21 - 21) =      6.61368  eV     1   --> A              
     e( 22 - 22) =      7.44164  eV     1   --> A              
     e( 23 - 23) =      9.12161  eV     1   --> A              
     e( 24 - 24) =      9.74095  eV     1   --> A              
     e( 25 - 25) =      9.87852  eV     1   --> A              
     e( 26 - 26) =     10.59440  eV     1   --> A              
     e( 27 - 27) =     11.13666  eV     1   --> A              
     e( 28 - 28) =     11.71864  eV     1   --> A              
     e( 29 - 29) =     11.74059  eV     1   --> A              
     e( 30 - 30) =     11.89548  eV     1   --> A              
     e( 31 - 31) =     12.51571  eV     1   --> A              
     e( 32 - 32) =     13.59047  eV     1   --> A              
     e( 33 - 33) =     13.91160  eV     1   --> A              
     e( 34 - 34) =     13.92002  eV     1   --> A              
     e( 35 - 35) =     14.12650  eV     1   --> A              
     e( 36 - 36) =     14.39006  eV     1   --> A              
     e( 37 - 37) =     15.49644  eV     1   --> A              
     e( 38 - 38) =     15.66198  eV     1   --> A              
     e( 39 - 39) =     16.09778  eV     1   --> A              
     e( 40 - 40) =     16.87411  eV     1   --> A              
     e( 41 - 41) =     18.22539  eV     1   --> A              
     e( 42 - 42) =     18.50893  eV     1   --> A              
     e( 43 - 43) =     18.70771  eV     1   --> A              
     e( 44 - 44) =     18.79246  eV     1   --> A              
     e( 45 - 45) =     19.19996  eV     1   --> A              
     e( 46 - 46) =     19.34497  eV     1   --> A              
     e( 47 - 47) =     19.58917  eV     1   --> A              
     e( 48 - 48) =     19.70006  eV     1   --> A              
     e( 49 - 49) =     20.39541  eV     1   --> A              
     e( 50 - 50) =     20.40627  eV     1   --> A              
     e( 51 - 51) =     21.18537  eV     1   --> A              
     e( 52 - 52) =     21.23180  eV     1   --> A              
     e( 53 - 53) =     21.71346  eV     1   --> A              
     e( 54 - 54) =     22.17334  eV     1   --> A              
     e( 55 - 55) =     22.24528  eV     1   --> A              
     e( 56 - 56) =     22.50233  eV     1   --> A              
     e( 57 - 57) =     22.59254  eV     1   --> A              
     e( 58 - 58) =     22.99270  eV     1   --> A              
     e( 59 - 59) =     23.41294  eV     1   --> A              
     e( 60 - 60) =     24.19061  eV     1   --> A              
     e( 61 - 61) =     24.27711  eV     1   --> A              
     e( 62 - 62) =     24.38992  eV     1   --> A              
     e( 63 - 63) =     24.67877  eV     1   --> A              
     e( 64 - 64) =     24.81434  eV     1   --> A              
     e( 65 - 65) =     24.88953  eV     1   --> A              
     e( 66 - 66) =     25.79382  eV     1   --> A              
     e( 67 - 67) =     26.48478  eV     1   --> A              
     e( 68 - 68) =     26.61863  eV     1   --> A              
     e( 69 - 69) =     26.75863  eV     1   --> A              
     e( 70 - 70) =     26.95345  eV     1   --> A              

 **************************************************************************

 **************************************************************************

                    xk=(   0.17326,   0.09976,   0.00000  )

     Band symmetry, C_1 (1)     point group:

     e(  1 -  1) =    -15.76664  eV     1   --> A              
     e(  2 -  2) =    -15.75952  eV     1   --> A              
     e(  3 -  3) =    -15.70048  eV     1   --> A              
     e(  4 -  4) =    -15.69302  eV     1   --> A              
     e(  5 -  5) =     -2.73356  eV     1   --> A              
     e(  6 -  6) =     -2.71096  eV     1   --> A              
     e(  7 -  7) =     -1.69873  eV     1   --> A              
     e(  8 -  8) =     -1.68230  eV     1   --> A              
     e(  9 -  9) =     -1.47058  eV     1   --> A              
     e( 10 - 10) =     -1.37457  eV     1   --> A              
     e( 11 - 11) =     -0.96780  eV     1   --> A              
     e( 12 - 12) =     -0.96278  eV     1   --> A              
     e( 13 - 13) =     -0.91211  eV     1   --> A              
     e( 14 - 14) =     -0.90667  eV     1   --> A              
     e( 15 - 15) =     -0.56315  eV     1   --> A              
     e( 16 - 16) =     -0.36261  eV     1   --> A              
     e( 17 - 17) =      2.13825  eV     1   --> A              
     e( 18 - 18) =      2.34322  eV     1   --> A              
     e( 19 - 19) =      5.18865  eV     1   --> A              
     e( 20 - 20) =      5.68628  eV     1   --> A              
     e( 21 - 21) =      6.68909  eV     1   --> A              
     e( 22 - 22) =      7.55501  eV     1   --> A              
     e( 23 - 23) =      9.14813  eV     1   --> A              
     e( 24 - 24) =      9.45791  eV     1   --> A              
     e( 25 - 25) =      9.56965  eV     1   --> A              
     e( 26 - 26) =     10.68081  eV     1   --> A              
     e( 27 - 27) =     11.01787  eV     1   --> A              
     e( 28 - 28) =     11.64103  eV     1   --> A              
     e( 29 - 29) =     11.67863  eV     1   --> A              
     e( 30 - 30) =     11.69114  eV     1   --> A              
     e( 31 - 31) =     12.39394  eV     1   --> A              
     e( 32 - 32) =     13.62346  eV     1   --> A              
     e( 33 - 33) =     13.98634  eV     1   --> A              
     e( 34 - 34) =     14.04305  eV     1   --> A              
     e( 35 - 35) =     14.05319  eV     1   --> A              
     e( 36 - 36) =     14.12217  eV     1   --> A              
     e( 37 - 37) =     15.34647  eV     1   --> A              
     e( 38 - 38) =     15.58800  eV     1   --> A              
     e( 39 - 39) =     16.20759  eV     1   --> A              
     e( 40 - 40) =     17.05729  eV     1   --> A              
     e( 41 - 41) =     18.15700  eV     1   --> A              
     e( 42 - 42) =     18.38559  eV     1   --> A              
     e( 43 - 43) =     18.69519  eV     1   --> A              
     e( 44 - 44) =     18.79908  eV     1   --> A              
     e( 45 - 45) =     19.13981  eV     1   --> A              
     e( 46 - 46) =     19.31717  eV     1   --> A              
     e( 47 - 47) =     19.39718  eV     1   --> A              
     e( 48 - 48) =     19.81400  eV     1   --> A              
     e( 49 - 49) =     20.33833  eV     1   --> A              
     e( 50 - 50) =     20.63034  eV     1   --> A              
     e( 51 - 51) =     20.99220  eV     1   --> A              
     e( 52 - 52) =     21.40116  eV     1   --> A              
     e( 53 - 53) =     22.07283  eV     1   --> A              
     e( 54 - 54) =     22.11360  eV     1   --> A              
     e( 55 - 55) =     22.11589  eV     1   --> A              
     e( 56 - 56) =     22.42421  eV     1   --> A              
     e( 57 - 57) =     22.87572  eV     1   --> A              
     e( 58 - 58) =     23.37827  eV     1   --> A              
     e( 59 - 59) =     23.43478  eV     1   --> A              
     e( 60 - 60) =     24.19006  eV     1   --> A              
     e( 61 - 61) =     24.37568  eV     1   --> A              
     e( 62 - 62) =     24.40623  eV     1   --> A              
     e( 63 - 63) =     24.81585  eV     1   --> A              
     e( 64 - 64) =     24.90848  eV     1   --> A              
     e( 65 - 65) =     25.15686  eV     1   --> A              
     e( 66 - 66) =     25.76868  eV     1   --> A              
     e( 67 - 67) =     26.32219  eV     1   --> A              
     e( 68 - 68) =     26.47458  eV     1   --> A              
     e( 69 - 69) =     26.86916  eV     1   --> A              
     e( 70 - 70) =     26.88116  eV     1   --> A              

 **************************************************************************

 **************************************************************************

                    xk=(   0.19251,   0.11085,   0.00000  )

     Band symmetry, C_1 (1)     point group:

     e(  1 -  1) =    -15.73717  eV     1   --> A              
     e(  2 -  2) =    -15.73019  eV     1   --> A              
     e(  3 -  3) =    -15.67269  eV     1   --> A              
     e(  4 -  4) =    -15.66536  eV     1   --> A              
     e(  5 -  5) =     -2.76156  eV     1   --> A              
     e(  6 -  6) =     -2.74468  eV     1   --> A              
     e(  7 -  7) =     -1.85637  eV     1   --> A              
     e(  8 -  8) =     -1.83805  eV     1   --> A              
     e(  9 -  9) =     -1.51565  eV     1   --> A              
     e( 10 - 10) =     -1.41053  eV     1   --> A              
     e( 11 - 11) =     -1.01562  eV     1   --> A              
     e( 12 - 12) =     -1.01030  eV     1   --> A              
     e( 13 - 13) =     -0.95600  eV     1   --> A              
     e( 14 - 14) =     -0.95028  eV     1   --> A              
     e( 15 - 15) =     -0.52054  eV     1   --> A              
     e( 16 - 16) =     -0.32550  eV     1   --> A              
     e( 17 - 17) =      2.23467  eV     1   --> A              
     e( 18 - 18) =      2.41827  eV     1   --> A              
     e( 19 - 19) =      5.41268  eV     1   --> A              
     e( 20 - 20) =      5.91478  eV     1   --> A              
     e( 21 - 21) =      6.76904  eV     1   --> A              
     e( 22 - 22) =      7.66850  eV     1   --> A              
     e( 23 - 23) =      9.16537  eV     1   --> A              
     e( 24 - 24) =      9.17452  eV     1   --> A              
     e( 25 - 25) =      9.27306  eV     1   --> A              
     e( 26 - 26) =     10.79139  eV     1   --> A              
     e( 27 - 27) =     10.88919  eV     1   --> A              
     e( 28 - 28) =     11.49567  eV     1   --> A              
     e( 29 - 29) =     11.53795  eV     1   --> A              
     e( 30 - 30) =     11.59853  eV     1   --> A              
     e( 31 - 31) =     12.28501  eV     1   --> A              
     e( 32 - 32) =     13.65893  eV     1   --> A              
     e( 33 - 33) =     13.84828  eV     1   --> A              
     e( 34 - 34) =     13.86116  eV     1   --> A              
     e( 35 - 35) =     14.18123  eV     1   --> A              
     e( 36 - 36) =     14.19089  eV     1   --> A              
     e( 37 - 37) =     15.22141  eV     1   --> A              
     e( 38 - 38) =     15.54647  eV     1   --> A              
     e( 39 - 39) =     16.32847  eV     1   --> A              
     e( 40 - 40) =     17.21416  eV     1   --> A              
     e( 41 - 41) =     17.79178  eV     1   --> A              
     e( 42 - 42) =     18.53135  eV     1   --> A              
     e( 43 - 43) =     18.55663  eV     1   --> A              
     e( 44 - 44) =     18.74815  eV     1   --> A              
     e( 45 - 45) =     19.03487  eV     1   --> A              
     e( 46 - 46) =     19.21278  eV     1   --> A              
     e( 47 - 47) =     19.42740  eV     1   --> A              
     e( 48 - 48) =     19.95109  eV     1   --> A              
     e( 49 - 49) =     20.29928  eV     1   --> A              
     e( 50 - 50) =     20.82979  eV     1   --> A              
     e( 51 - 51) =     20.90720  eV     1   --> A              
     e( 52 - 52) =     21.29314  eV     1   --> A              
     e( 53 - 53) =     21.87848  eV     1   --> A              
     e( 54 - 54) =     22.20548  eV     1   --> A              
     e( 55 - 55) =     22.41418  eV     1   --> A              
     e( 56 - 56) =     22.54255  eV     1   --> A              
     e( 57 - 57) =     23.30912  eV     1   --> A              
     e( 58 - 58) =     23.34368  eV     1   --> A              
     e( 59 - 59) =     23.86879  eV     1   --> A              
     e( 60 - 60) =     24.15562  eV     1   --> A              
     e( 61 - 61) =     24.38783  eV     1   --> A              
     e( 62 - 62) =     24.47403  eV     1   --> A              
     e( 63 - 63) =     24.87344  eV     1   --> A              
     e( 64 - 64) =     25.01942  eV     1   --> A              
     e( 65 - 65) =     25.41666  eV     1   --> A              
     e( 66 - 66) =     25.81950  eV     1   --> A              
     e( 67 - 67) =     26.01975  eV     1   --> A              
     e( 68 - 68) =     26.48663  eV     1   --> A              
     e( 69 - 69) =     26.84467  eV     1   --> A              
     e( 70 - 70) =     26.96768  eV     1   --> A              

 **************************************************************************

 **************************************************************************

                    xk=(   0.21177,   0.12193,   0.00000  )

     Band symmetry, C_1 (1)     point group:

     e(  1 -  1) =    -15.70599  eV     1   --> A              
     e(  2 -  2) =    -15.69914  eV     1   --> A              
     e(  3 -  3) =    -15.64331  eV     1   --> A              
     e(  4 -  4) =    -15.63610  eV     1   --> A              
     e(  5 -  5) =     -2.80775  eV     1   --> A              
     e(  6 -  6) =     -2.79471  eV     1   --> A              
     e(  7 -  7) =     -2.01147  eV     1   --> A              
     e(  8 -  8) =     -1.99151  eV     1   --> A              
     e(  9 -  9) =     -1.53201  eV     1   --> A              
     e( 10 - 10) =     -1.42073  eV     1   --> A              
     e( 11 - 11) =     -1.06957  eV     1   --> A              
     e( 12 - 12) =     -1.06389  eV     1   --> A              
     e( 13 - 13) =     -1.00532  eV     1   --> A              
     e( 14 - 14) =     -0.99922  eV     1   --> A              
     e( 15 - 15) =     -0.47534  eV     1   --> A              
     e( 16 - 16) =     -0.28625  eV     1   --> A              
     e( 17 - 17) =      2.32717  eV     1   --> A              
     e( 18 - 18) =      2.48979  eV     1   --> A              
     e( 19 - 19) =      5.64376  eV     1   --> A              
     e( 20 - 20) =      6.15023  eV     1   --> A              
     e( 21 - 21) =      6.85247  eV     1   --> A              
     e( 22 - 22) =      7.77405  eV     1   --> A              
     e( 23 - 23) =      8.87575  eV     1   --> A              
     e( 24 - 24) =      8.99663  eV     1   --> A              
     e( 25 - 25) =      9.19974  eV     1   --> A              
     e( 26 - 26) =     10.75463  eV     1   --> A              
     e( 27 - 27) =     10.90921  eV     1   --> A              
     e( 28 - 28) =     11.31244  eV     1   --> A              
     e( 29 - 29) =     11.41314  eV     1   --> A              
     e( 30 - 30) =     11.50808  eV     1   --> A              
     e( 31 - 31) =     12.18886  eV     1   --> A              
     e( 32 - 32) =     13.60430  eV     1   --> A              
     e( 33 - 33) =     13.69746  eV     1   --> A              
     e( 34 - 34) =     13.70848  eV     1   --> A              
     e( 35 - 35) =     14.32239  eV     1   --> A              
     e( 36 - 36) =     14.32792  eV     1   --> A              
     e( 37 - 37) =     15.13717  eV     1   --> A              
     e( 38 - 38) =     15.54153  eV     1   --> A              
     e( 39 - 39) =     16.45610  eV     1   --> A              
     e( 40 - 40) =     17.34512  eV     1   --> A              
     e( 41 - 41) =     17.42323  eV     1   --> A              
     e( 42 - 42) =     18.30298  eV     1   --> A              
     e( 43 - 43) =     18.64041  eV     1   --> A              
     e( 44 - 44) =     18.66998  eV     1   --> A              
     e( 45 - 45) =     19.02692  eV     1   --> A              
     e( 46 - 46) =     19.03630  eV     1   --> A              
     e( 47 - 47) =     19.51727  eV     1   --> A              
     e( 48 - 48) =     20.06866  eV     1   --> A              
     e( 49 - 49) =     20.29310  eV     1   --> A              
     e( 50 - 50) =     20.71291  eV     1   --> A              
     e( 51 - 51) =     21.06979  eV     1   --> A              
     e( 52 - 52) =     21.21972  eV     1   --> A              
     e( 53 - 53) =     21.70921  eV     1   --> A              
     e( 54 - 54) =     22.16951  eV     1   --> A              
     e( 55 - 55) =     22.70418  eV     1   --> A              
     e( 56 - 56) =     22.95090  eV     1   --> A              
     e( 57 - 57) =     23.33460  eV     1   --> A              
     e( 58 - 58) =     23.73118  eV     1   --> A              
     e( 59 - 59) =     24.10454  eV     1   --> A              
     e( 60 - 60) =     24.26372  eV     1   --> A              
     e( 61 - 61) =     24.34739  eV     1   --> A              
     e( 62 - 62) =     24.58641  eV     1   --> A              
     e( 63 - 63) =     24.88574  eV     1   --> A              
     e( 64 - 64) =     25.13058  eV     1   --> A              
     e( 65 - 65) =     25.64758  eV     1   --> A              
     e( 66 - 66) =     25.71556  eV     1   --> A              
     e( 67 - 67) =     25.93465  eV     1   --> A              
     e( 68 - 68) =     26.52111  eV     1   --> A              
     e( 69 - 69) =     26.83677  eV     1   --> A              
     e( 70 - 70) =     27.06933  eV     1   --> A              

 **************************************************************************

 **************************************************************************

                    xk=(   0.23102,   0.13302,   0.00000  )

     Band symmetry, C_1 (1)     point group:

     e(  1 -  1) =    -15.67348  eV     1   --> A              
     e(  2 -  2) =    -15.66678  eV     1   --> A              
     e(  3 -  3) =    -15.61268  eV     1   --> A              
     e(  4 -  4) =    -15.60561  eV     1   --> A              
     e(  5 -  5) =     -2.87007  eV     1   --> A              
     e(  6 -  6) =     -2.85906  eV     1   --> A              
     e(  7 -  7) =     -2.16167  eV     1   --> A              
     e(  8 -  8) =     -2.14028  eV     1   --> A              
     e(  9 -  9) =     -1.52027  eV     1   --> A              
     e( 10 - 10) =     -1.40579  eV     1   --> A              
     e( 11 - 11) =     -1.12977  eV     1   --> A              
     e( 12 - 12) =     -1.12367  eV     1   --> A              
     e( 13 - 13) =     -1.06016  eV     1   --> A              
     e( 14 - 14) =     -1.05363  eV     1   --> A              
     e( 15 - 15) =     -0.42805  eV     1   --> A              
     e( 16 - 16) =     -0.24539  eV     1   --> A              
     e( 17 - 17) =      2.41495  eV     1   --> A              
     e( 18 - 18) =      2.55739  eV     1   --> A              
     e( 19 - 19) =      5.88036  eV     1   --> A              
     e( 20 - 20) =      6.39076  eV     1   --> A              
     e( 21 - 21) =      6.93800  eV     1   --> A              
     e( 22 - 22) =      7.85501  eV     1   --> A              
     e( 23 - 23) =      8.59486  eV     1   --> A              
     e( 24 - 24) =      8.75620  eV     1   --> A              
     e( 25 - 25) =      9.22310  eV     1   --> A              
     e( 26 - 26) =     10.61845  eV     1   --> A              
     e( 27 - 27) =     11.00779  eV     1   --> A              
     e( 28 - 28) =     11.14431  eV     1   --> A              
     e( 29 - 29) =     11.27268  eV     1   --> A              
     e( 30 - 30) =     11.43278  eV     1   --> A              
     e( 31 - 31) =     12.10461  eV     1   --> A              
     e( 32 - 32) =     13.35493  eV     1   --> A              
     e( 33 - 33) =     13.55836  eV     1   --> A              
     e( 34 - 34) =     13.73910  eV     1   --> A              
     e( 35 - 35) =     14.45719  eV     1   --> A              
     e( 36 - 36) =     14.46293  eV     1   --> A              
     e( 37 - 37) =     15.10212  eV     1   --> A              
     e( 38 - 38) =     15.57147  eV     1   --> A              
     e( 39 - 39) =     16.58850  eV     1   --> A              
     e( 40 - 40) =     17.05825  eV     1   --> A              
     e( 41 - 41) =     17.44485  eV     1   --> A              
     e( 42 - 42) =     18.00829  eV     1   --> A              
     e( 43 - 43) =     18.50359  eV     1   --> A              
     e( 44 - 44) =     18.80574  eV     1   --> A              
     e( 45 - 45) =     18.86717  eV     1   --> A              
     e( 46 - 46) =     19.04811  eV     1   --> A              
     e( 47 - 47) =     19.58465  eV     1   --> A              
     e( 48 - 48) =     20.06367  eV     1   --> A              
     e( 49 - 49) =     20.32102  eV     1   --> A              
     e( 50 - 50) =     20.70264  eV     1   --> A              
     e( 51 - 51) =     20.84147  eV     1   --> A              
     e( 52 - 52) =     21.55148  eV     1   --> A              
     e( 53 - 53) =     21.63305  eV     1   --> A              
     e( 54 - 54) =     22.05070  eV     1   --> A              
     e( 55 - 55) =     23.09376  eV     1   --> A              
     e( 56 - 56) =     23.11337  eV     1   --> A              
     e( 57 - 57) =     23.56142  eV     1   --> A              
     e( 58 - 58) =     24.04788  eV     1   --> A              
     e( 59 - 59) =     24.10739  eV     1   --> A              
     e( 60 - 60) =     24.30493  eV     1   --> A              
     e( 61 - 61) =     24.52433  eV     1   --> A              
     e( 62 - 62) =     24.72821  eV     1   --> A              
     e( 63 - 63) =     24.95600  eV     1   --> A              
     e( 64 - 64) =     25.23399  eV     1   --> A              
     e( 65 - 65) =     25.44615  eV     1   --> A              
     e( 66 - 66) =     25.82991  eV     1   --> A              
     e( 67 - 67) =     26.06790  eV     1   --> A              
     e( 68 - 68) =     26.56784  eV     1   --> A              
     e( 69 - 69) =     26.84567  eV     1   --> A              
     e( 70 - 70) =     27.20291  eV     1   --> A              

 **************************************************************************

 **************************************************************************

                    xk=(   0.25027,   0.14410,   0.00000  )

     Band symmetry, C_1 (1)     point group:

     e(  1 -  1) =    -15.64004  eV     1   --> A              
     e(  2 -  2) =    -15.63350  eV     1   --> A              
     e(  3 -  3) =    -15.58120  eV     1   --> A              
     e(  4 -  4) =    -15.57427  eV     1   --> A              
     e(  5 -  5) =     -2.94408  eV     1   --> A              
     e(  6 -  6) =     -2.93366  eV     1   --> A              
     e(  7 -  7) =     -2.30501  eV     1   --> A              
     e(  8 -  8) =     -2.28250  eV     1   --> A              
     e(  9 -  9) =     -1.48387  eV     1   --> A              
     e( 10 - 10) =     -1.36858  eV     1   --> A              
     e( 11 - 11) =     -1.19626  eV     1   --> A              
     e( 12 - 12) =     -1.18973  eV     1   --> A              
     e( 13 - 13) =     -1.12048  eV     1   --> A              
     e( 14 - 14) =     -1.11351  eV     1   --> A              
     e( 15 - 15) =     -0.37926  eV     1   --> A              
     e( 16 - 16) =     -0.20331  eV     1   --> A              
     e( 17 - 17) =      2.49756  eV     1   --> A              
     e( 18 - 18) =      2.62091  eV     1   --> A              
     e( 19 - 19) =      6.12127  eV     1   --> A              
     e( 20 - 20) =      6.63479  eV     1   --> A              
     e( 21 - 21) =      7.02349  eV     1   --> A              
     e( 22 - 22) =      7.87496  eV     1   --> A              
     e( 23 - 23) =      8.32721  eV     1   --> A              
     e( 24 - 24) =      8.58687  eV     1   --> A              
     e( 25 - 25) =      9.24378  eV     1   --> A              
     e( 26 - 26) =     10.48462  eV     1   --> A              
     e( 27 - 27) =     10.99364  eV     1   --> A              
     e( 28 - 28) =     11.02487  eV     1   --> A              
     e( 29 - 29) =     11.12374  eV     1   --> A              
     e( 30 - 30) =     11.43653  eV     1   --> A              
     e( 31 - 31) =     12.03121  eV     1   --> A              
     e( 32 - 32) =     13.11414  eV     1   --> A              
     e( 33 - 33) =     13.39800  eV     1   --> A              
     e( 34 - 34) =     13.78318  eV     1   --> A              
     e( 35 - 35) =     14.57271  eV     1   --> A              
     e( 36 - 36) =     14.59631  eV     1   --> A              
     e( 37 - 37) =     15.11593  eV     1   --> A              
     e( 38 - 38) =     15.62940  eV     1   --> A              
     e( 39 - 39) =     16.70257  eV     1   --> A              
     e( 40 - 40) =     16.72434  eV     1   --> A              
     e( 41 - 41) =     17.49667  eV     1   --> A              
     e( 42 - 42) =     17.70211  eV     1   --> A              
     e( 43 - 43) =     18.37999  eV     1   --> A              
     e( 44 - 44) =     18.70504  eV     1   --> A              
     e( 45 - 45) =     18.94077  eV     1   --> A              
     e( 46 - 46) =     19.07597  eV     1   --> A              
     e( 47 - 47) =     19.63334  eV     1   --> A              
     e( 48 - 48) =     19.89925  eV     1   --> A              
     e( 49 - 49) =     20.38054  eV     1   --> A              
     e( 50 - 50) =     20.63701  eV     1   --> A              
     e( 51 - 51) =     20.81837  eV     1   --> A              
     e( 52 - 52) =     21.63947  eV     1   --> A              
     e( 53 - 53) =     21.87972  eV     1   --> A              
     e( 54 - 54) =     21.90707  eV     1   --> A              
     e( 55 - 55) =     23.05947  eV     1   --> A              
     e( 56 - 56) =     23.49082  eV     1   --> A              
     e( 57 - 57) =     23.94903  eV     1   --> A              
     e( 58 - 58) =     23.99438  eV     1   --> A              
     e( 59 - 59) =     24.31198  eV     1   --> A              
     e( 60 - 60) =     24.40051  eV     1   --> A              
     e( 61 - 61) =     24.55338  eV     1   --> A              
     e( 62 - 62) =     24.92218  eV     1   --> A              
     e( 63 - 63) =     25.09334  eV     1   --> A              
     e( 64 - 64) =     25.30546  eV     1   --> A              
     e( 65 - 65) =     25.32807  eV     1   --> A              
     e( 66 - 66) =     25.95306  eV     1   --> A              
     e( 67 - 67) =     26.21700  eV     1   --> A              
     e( 68 - 68) =     26.61198  eV     1   --> A              
     e( 69 - 69) =     26.85801  eV     1   --> A              
     e( 70 - 70) =     27.39047  eV     1   --> A              

 **************************************************************************

 **************************************************************************

                    xk=(   0.26952,   0.15519,   0.00000  )

     Band symmetry, C_1 (1)     point group:

     e(  1 -  1) =    -15.60611  eV     1   --> A              
     e(  2 -  2) =    -15.59973  eV     1   --> A              
     e(  3 -  3) =    -15.54926  eV     1   --> A              
     e(  4 -  4) =    -15.54248  eV     1   --> A              
     e(  5 -  5) =     -3.02451  eV     1   --> A              
     e(  6 -  6) =     -3.01370  eV     1   --> A              
     e(  7 -  7) =     -2.43979  eV     1   --> A              
     e(  8 -  8) =     -2.41639  eV     1   --> A              
     e(  9 -  9) =     -1.42752  eV     1   --> A              
     e( 10 - 10) =     -1.31314  eV     1   --> A              
     e( 11 - 11) =     -1.26909  eV     1   --> A              
     e( 12 - 12) =     -1.26200  eV     1   --> A              
     e( 13 - 13) =     -1.18631  eV     1   --> A              
     e( 14 - 14) =     -1.17882  eV     1   --> A              
     e( 15 - 15) =     -0.32958  eV     1   --> A              
     e( 16 - 16) =     -0.16055  eV     1   --> A              
     e( 17 - 17) =      2.57480  eV     1   --> A              
     e( 18 - 18) =      2.68037  eV     1   --> A              
     e( 19 - 19) =      6.36551  eV     1   --> A              
     e( 20 - 20) =      6.88104  eV     1   --> A              
     e( 21 - 21) =      7.10442  eV     1   --> A              
     e( 22 - 22) =      7.79055  eV     1   --> A              
     e( 23 - 23) =      8.07861  eV     1   --> A              
     e( 24 - 24) =      8.53025  eV     1   --> A              
     e( 25 - 25) =      9.26119  eV     1   --> A              
     e( 26 - 26) =     10.35653  eV     1   --> A              
     e( 27 - 27) =     10.86240  eV     1   --> A              
     e( 28 - 28) =     10.93946  eV     1   --> A              
     e( 29 - 29) =     10.97363  eV     1   --> A              
     e( 30 - 30) =     11.54135  eV     1   --> A              
     e( 31 - 31) =     11.96776  eV     1   --> A              
     e( 32 - 32) =     12.88602  eV     1   --> A              
     e( 33 - 33) =     13.23136  eV     1   --> A              
     e( 34 - 34) =     13.82786  eV     1   --> A              
     e( 35 - 35) =     14.66536  eV     1   --> A              
     e( 36 - 36) =     14.71753  eV     1   --> A              
     e( 37 - 37) =     15.17178  eV     1   --> A              
     e( 38 - 38) =     15.70395  eV     1   --> A              
     e( 39 - 39) =     16.36181  eV     1   --> A              
     e( 40 - 40) =     16.86232  eV     1   --> A              
     e( 41 - 41) =     17.39545  eV     1   --> A              
     e( 42 - 42) =     17.47685  eV     1   --> A              
     e( 43 - 43) =     18.31520  eV     1   --> A              
     e( 44 - 44) =     18.55025  eV     1   --> A              
     e( 45 - 45) =     19.07355  eV     1   --> A              
     e( 46 - 46) =     19.10803  eV     1   --> A              
     e( 47 - 47) =     19.66046  eV     1   --> A              
     e( 48 - 48) =     19.66991  eV     1   --> A              
     e( 49 - 49) =     20.46535  eV     1   --> A              
     e( 50 - 50) =     20.46711  eV     1   --> A              
     e( 51 - 51) =     20.98129  eV     1   --> A              
     e( 52 - 52) =     21.69897  eV     1   --> A              
     e( 53 - 53) =     21.74836  eV     1   --> A              
     e( 54 - 54) =     22.17603  eV     1   --> A              
     e( 55 - 55) =     22.96843  eV     1   --> A              
     e( 56 - 56) =     23.80333  eV     1   --> A              
     e( 57 - 57) =     24.01595  eV     1   --> A              
     e( 58 - 58) =     24.10815  eV     1   --> A              
     e( 59 - 59) =     24.47083  eV     1   --> A              
     e( 60 - 60) =     24.58471  eV     1   --> A              
     e( 61 - 61) =     24.58939  eV     1   --> A              
     e( 62 - 62) =     24.99319  eV     1   --> A              
     e( 63 - 63) =     25.16963  eV     1   --> A              
     e( 64 - 64) =     25.41319  eV     1   --> A              
     e( 65 - 65) =     25.48470  eV     1   --> A              
     e( 66 - 66) =     26.03803  eV     1   --> A              
     e( 67 - 67) =     26.38861  eV     1   --> A              
     e( 68 - 68) =     26.64462  eV     1   --> A              
     e( 69 - 69) =     26.86057  eV     1   --> A              
     e( 70 - 70) =     27.62113  eV     1   --> A              

 **************************************************************************

 **************************************************************************

                    xk=(   0.28877,   0.16627,   0.00000  )

     Band symmetry, C_1 (1)     point group:

     e(  1 -  1) =    -15.57212  eV     1   --> A              
     e(  2 -  2) =    -15.56590  eV     1   --> A              
     e(  3 -  3) =    -15.51726  eV     1   --> A              
     e(  4 -  4) =    -15.51064  eV     1   --> A              
     e(  5 -  5) =     -3.10641  eV     1   --> A              
     e(  6 -  6) =     -3.09463  eV     1   --> A              
     e(  7 -  7) =     -2.56458  eV     1   --> A              
     e(  8 -  8) =     -2.54049  eV     1   --> A              
     e(  9 -  9) =     -1.35619  eV     1   --> A              
     e( 10 - 10) =     -1.34788  eV     1   --> A              
     e( 11 - 11) =     -1.34065  eV     1   --> A              
     e( 12 - 12) =     -1.25749  eV     1   --> A              
     e( 13 - 13) =     -1.24947  eV     1   --> A              
     e( 14 - 14) =     -1.24324  eV     1   --> A              
     e( 15 - 15) =     -0.27963  eV     1   --> A              
     e( 16 - 16) =     -0.11768  eV     1   --> A              
     e( 17 - 17) =      2.64665  eV     1   --> A              
     e( 18 - 18) =      2.73603  eV     1   --> A              
     e( 19 - 19) =      6.61228  eV     1   --> A              
     e( 20 - 20) =      7.12835  eV     1   --> A              
     e( 21 - 21) =      7.16904  eV     1   --> A              
     e( 22 - 22) =      7.62093  eV     1   --> A              
     e( 23 - 23) =      7.86160  eV     1   --> A              
     e( 24 - 24) =      8.56492  eV     1   --> A              
     e( 25 - 25) =      9.27502  eV     1   --> A              
     e( 26 - 26) =     10.23690  eV     1   --> A              
     e( 27 - 27) =     10.75202  eV     1   --> A              
     e( 28 - 28) =     10.80906  eV     1   --> A              
     e( 29 - 29) =     10.82834  eV     1   --> A              
     e( 30 - 30) =     11.68770  eV     1   --> A              
     e( 31 - 31) =     11.91365  eV     1   --> A              
     e( 32 - 32) =     12.67858  eV     1   --> A              
     e( 33 - 33) =     13.06467  eV     1   --> A              
     e( 34 - 34) =     13.86916  eV     1   --> A              
     e( 35 - 35) =     14.72722  eV     1   --> A              
     e( 36 - 36) =     14.81984  eV     1   --> A              
     e( 37 - 37) =     15.26019  eV     1   --> A              
     e( 38 - 38) =     15.77935  eV     1   --> A              
     e( 39 - 39) =     16.04240  eV     1   --> A              
     e( 40 - 40) =     17.00091  eV     1   --> A              
     e( 41 - 41) =     17.09435  eV     1   --> A              
     e( 42 - 42) =     17.38787  eV     1   --> A              
     e( 43 - 43) =     18.32220  eV     1   --> A              
     e( 44 - 44) =     18.40430  eV     1   --> A              
     e( 45 - 45) =     19.14738  eV     1   --> A              
     e( 46 - 46) =     19.19884  eV     1   --> A              
     e( 47 - 47) =     19.40589  eV     1   --> A              
     e( 48 - 48) =     19.70343  eV     1   --> A              
     e( 49 - 49) =     20.33509  eV     1   --> A              
     e( 50 - 50) =     20.56676  eV     1   --> A              
     e( 51 - 51) =     21.14747  eV     1   --> A              
     e( 52 - 52) =     21.58249  eV     1   --> A              
     e( 53 - 53) =     21.78359  eV     1   --> A              
     e( 54 - 54) =     22.40538  eV     1   --> A              
     e( 55 - 55) =     22.87113  eV     1   --> A              
     e( 56 - 56) =     23.79792  eV     1   --> A              
     e( 57 - 57) =     24.11031  eV     1   --> A              
     e( 58 - 58) =     24.33201  eV     1   --> A              
     e( 59 - 59) =     24.35863  eV     1   --> A              
     e( 60 - 60) =     24.69204  eV     1   --> A              
     e( 61 - 61) =     24.91537  eV     1   --> A              
     e( 62 - 62) =     25.02674  eV     1   --> A              
     e( 63 - 63) =     25.41976  eV     1   --> A              
     e( 64 - 64) =     25.49081  eV     1   --> A              
     e( 65 - 65) =     25.66073  eV     1   --> A              
     e( 66 - 66) =     26.14081  eV     1   --> A              
     e( 67 - 67) =     26.58948  eV     1   --> A              
     e( 68 - 68) =     26.67135  eV     1   --> A              
     e( 69 - 69) =     26.84195  eV     1   --> A              
     e( 70 - 70) =     27.85246  eV     1   --> A              

 **************************************************************************

 **************************************************************************

                    xk=(   0.30802,   0.17736,   0.00000  )

     Band symmetry, C_1 (1)     point group:

     e(  1 -  1) =    -15.53849  eV     1   --> A              
     e(  2 -  2) =    -15.53243  eV     1   --> A              
     e(  3 -  3) =    -15.48563  eV     1   --> A              
     e(  4 -  4) =    -15.47915  eV     1   --> A              
     e(  5 -  5) =     -3.18566  eV     1   --> A              
     e(  6 -  6) =     -3.17256  eV     1   --> A              
     e(  7 -  7) =     -2.67808  eV     1   --> A              
     e(  8 -  8) =     -2.65342  eV     1   --> A              
     e(  9 -  9) =     -1.43325  eV     1   --> A              
     e( 10 - 10) =     -1.42508  eV     1   --> A              
     e( 11 - 11) =     -1.33388  eV     1   --> A              
     e( 12 - 12) =     -1.32523  eV     1   --> A              
     e( 13 - 13) =     -1.27320  eV     1   --> A              
     e( 14 - 14) =     -1.16305  eV     1   --> A              
     e( 15 - 15) =     -0.23008  eV     1   --> A              
     e( 16 - 16) =     -0.07525  eV     1   --> A              
[...]
     e( 61 - 61) =     23.95087  eV     1   --> A''            
     e( 62 - 62) =     24.03980  eV     1   --> A'             
     e( 63 - 63) =     24.04220  eV     1   --> A''            
     e( 64 - 64) =     24.30572  eV     1   --> A'             
     e( 65 - 65) =     24.78416  eV     1   --> A''            
     e( 66 - 66) =     26.18458  eV     1   --> A'             
     e( 67 - 67) =     26.34155  eV     1   --> A'             
     e( 68 - 68) =     26.35562  eV     1   --> A'             
     e( 69 - 69) =     27.06013  eV     1   --> A''            
     e( 70 - 70) =     27.20598  eV     1   --> A'             

 **************************************************************************

 **************************************************************************

                    xk=(   0.05775,   0.00000,   0.00000  )

     Band symmetry, C_s (m)     point group:

     e(  1 -  1) =    -15.89349  eV     1   --> A'             
     e(  2 -  2) =    -15.88584  eV     1   --> A'             
     e(  3 -  3) =    -15.82020  eV     1   --> A'             
     e(  4 -  4) =    -15.81218  eV     1   --> A'             
     e(  5 -  5) =     -2.78539  eV     1   --> A'             
     e(  6 -  6) =     -2.72841  eV     1   --> A'             
     e(  7 -  7) =     -0.87763  eV     1   --> A'             
     e(  8 -  8) =     -0.85990  eV     1   --> A'             
     e(  9 -  9) =     -0.84436  eV     1   --> A'             
     e( 10 - 10) =     -0.83852  eV     1   --> A'             
     e( 11 - 11) =     -0.79282  eV     1   --> A''            
     e( 12 - 12) =     -0.78898  eV     1   --> A''            
     e( 13 - 13) =     -0.74976  eV     1   --> A''            
     e( 14 - 14) =     -0.74521  eV     1   --> A''            
     e( 15 - 15) =     -0.74410  eV     1   --> A'             
     e( 16 - 16) =     -0.52933  eV     1   --> A'             
     e( 17 - 17) =      1.54683  eV     1   --> A'             
     e( 18 - 18) =      1.87876  eV     1   --> A'             
     e( 19 - 19) =      4.09752  eV     1   --> A'             
     e( 20 - 20) =      4.57947  eV     1   --> A'             
     e( 21 - 21) =      6.32698  eV     1   --> A'             
     e( 22 - 22) =      6.98719  eV     1   --> A'             
     e( 23 - 23) =      9.01015  eV     1   --> A'             
     e( 24 - 24) =     10.01780  eV     1   --> A'             
     e( 25 - 25) =     11.48999  eV     1   --> A'             
     e( 26 - 26) =     11.50306  eV     1   --> A'             
     e( 27 - 27) =     11.52584  eV     1   --> A'             
     e( 28 - 28) =     11.80029  eV     1   --> A''            
     e( 29 - 29) =     11.81777  eV     1   --> A''            
     e( 30 - 30) =     12.95329  eV     1   --> A'             
     e( 31 - 31) =     13.23818  eV     1   --> A'             
     e( 32 - 32) =     13.37213  eV     1   --> A''            
     e( 33 - 33) =     13.41672  eV     1   --> A''            
     e( 34 - 34) =     13.45352  eV     1   --> A'             
     e( 35 - 35) =     14.48581  eV     1   --> A'             
     e( 36 - 36) =     15.45961  eV     1   --> A'             
     e( 37 - 37) =     15.95830  eV     1   --> A'             
     e( 38 - 38) =     16.00935  eV     1   --> A'             
     e( 39 - 39) =     16.19175  eV     1   --> A''            
     e( 40 - 40) =     16.26797  eV     1   --> A''            
     e( 41 - 41) =     17.17205  eV     1   --> A'             
     e( 42 - 42) =     18.49313  eV     1   --> A'             
     e( 43 - 43) =     18.87255  eV     1   --> A'             
     e( 44 - 44) =     19.13194  eV     1   --> A'             
     e( 45 - 45) =     19.17310  eV     1   --> A'             
     e( 46 - 46) =     19.35751  eV     1   --> A''            
     e( 47 - 47) =     19.48401  eV     1   --> A'             
     e( 48 - 48) =     19.53753  eV     1   --> A''            
     e( 49 - 49) =     19.91706  eV     1   --> A'             
     e( 50 - 50) =     20.64756  eV     1   --> A''            
     e( 51 - 51) =     20.66602  eV     1   --> A'             
     e( 52 - 52) =     20.97939  eV     1   --> A'             
     e( 53 - 53) =     20.98515  eV     1   --> A''            
     e( 54 - 54) =     21.01604  eV     1   --> A'             
     e( 55 - 55) =     22.67100  eV     1   --> A'             
     e( 56 - 56) =     22.83652  eV     1   --> A'             
     e( 57 - 57) =     23.09655  eV     1   --> A'             
     e( 58 - 58) =     23.15134  eV     1   --> A''            
     e( 59 - 59) =     23.52271  eV     1   --> A'             
     e( 60 - 60) =     23.64727  eV     1   --> A'             
     e( 61 - 61) =     23.84674  eV     1   --> A''            
     e( 62 - 62) =     24.17785  eV     1   --> A''            
     e( 63 - 63) =     24.28745  eV     1   --> A'             
     e( 64 - 64) =     24.34054  eV     1   --> A'             
     e( 65 - 65) =     24.74768  eV     1   --> A''            
     e( 66 - 66) =     25.98468  eV     1   --> A'             
     e( 67 - 67) =     26.44031  eV     1   --> A'             
     e( 68 - 68) =     26.45742  eV     1   --> A'             
     e( 69 - 69) =     26.87348  eV     1   --> A''            
     e( 70 - 70) =     27.12051  eV     1   --> A'             

 **************************************************************************

 **************************************************************************

                    xk=(   0.03850,   0.00000,   0.00000  )

     Band symmetry, C_s (m)     point group:

     e(  1 -  1) =    -15.90042  eV     1   --> A'             
     e(  2 -  2) =    -15.89274  eV     1   --> A'             
     e(  3 -  3) =    -15.82673  eV     1   --> A'             
     e(  4 -  4) =    -15.81869  eV     1   --> A'             
     e(  5 -  5) =     -2.79414  eV     1   --> A'             
     e(  6 -  6) =     -2.73550  eV     1   --> A'             
     e(  7 -  7) =     -0.82177  eV     1   --> A'             
     e(  8 -  8) =     -0.81144  eV     1   --> A'             
     e(  9 -  9) =     -0.78819  eV     1   --> A'             
     e( 10 - 10) =     -0.78464  eV     1   --> A''            
     e( 11 - 11) =     -0.78085  eV     1   --> A''            
     e( 12 - 12) =     -0.77911  eV     1   --> A'             
     e( 13 - 13) =     -0.75147  eV     1   --> A'             
     e( 14 - 14) =     -0.74203  eV     1   --> A''            
     e( 15 - 15) =     -0.73755  eV     1   --> A''            
     e( 16 - 16) =     -0.54123  eV     1   --> A'             
     e( 17 - 17) =      1.49944  eV     1   --> A'             
     e( 18 - 18) =      1.84213  eV     1   --> A'             
     e( 19 - 19) =      4.02793  eV     1   --> A'             
     e( 20 - 20) =      4.50983  eV     1   --> A'             
     e( 21 - 21) =      6.30608  eV     1   --> A'             
     e( 22 - 22) =      6.95358  eV     1   --> A'             
     e( 23 - 23) =      9.00156  eV     1   --> A'             
     e( 24 - 24) =      9.99433  eV     1   --> A'             
     e( 25 - 25) =     11.54893  eV     1   --> A'             
     e( 26 - 26) =     11.66187  eV     1   --> A'             
     e( 27 - 27) =     11.67326  eV     1   --> A'             
     e( 28 - 28) =     11.79516  eV     1   --> A''            
     e( 29 - 29) =     11.81306  eV     1   --> A''            
     e( 30 - 30) =     13.07698  eV     1   --> A'             
     e( 31 - 31) =     13.31267  eV     1   --> A'             
     e( 32 - 32) =     13.33790  eV     1   --> A''            
     e( 33 - 33) =     13.38251  eV     1   --> A''            
     e( 34 - 34) =     13.41172  eV     1   --> A'             
     e( 35 - 35) =     14.42048  eV     1   --> A'             
     e( 36 - 36) =     15.32336  eV     1   --> A'             
     e( 37 - 37) =     16.11503  eV     1   --> A'             
     e( 38 - 38) =     16.15351  eV     1   --> A'             
     e( 39 - 39) =     16.22311  eV     1   --> A''            
     e( 40 - 40) =     16.29299  eV     1   --> A''            
     e( 41 - 41) =     17.03280  eV     1   --> A'             
     e( 42 - 42) =     18.47378  eV     1   --> A'             
     e( 43 - 43) =     19.00458  eV     1   --> A'             
     e( 44 - 44) =     19.04316  eV     1   --> A'             
     e( 45 - 45) =     19.25823  eV     1   --> A''            
     e( 46 - 46) =     19.27168  eV     1   --> A'             
     e( 47 - 47) =     19.37836  eV     1   --> A'             
     e( 48 - 48) =     19.43980  eV     1   --> A''            
     e( 49 - 49) =     19.67750  eV     1   --> A'             
     e( 50 - 50) =     20.75014  eV     1   --> A''            
     e( 51 - 51) =     20.76786  eV     1   --> A'             
     e( 52 - 52) =     20.77704  eV     1   --> A'             
     e( 53 - 53) =     21.05404  eV     1   --> A''            
     e( 54 - 54) =     21.07703  eV     1   --> A'             
     e( 55 - 55) =     22.66558  eV     1   --> A'             
     e( 56 - 56) =     22.92556  eV     1   --> A'             
     e( 57 - 57) =     23.06698  eV     1   --> A''            
     e( 58 - 58) =     23.11799  eV     1   --> A'             
     e( 59 - 59) =     23.40919  eV     1   --> A'             
     e( 60 - 60) =     23.68580  eV     1   --> A'             
     e( 61 - 61) =     23.76568  eV     1   --> A''            
     e( 62 - 62) =     24.28978  eV     1   --> A''            
     e( 63 - 63) =     24.37829  eV     1   --> A'             
     e( 64 - 64) =     24.51049  eV     1   --> A'             
     e( 65 - 65) =     24.72803  eV     1   --> A''            
     e( 66 - 66) =     25.78900  eV     1   --> A'             
     e( 67 - 67) =     26.52985  eV     1   --> A'             
     e( 68 - 68) =     26.53588  eV     1   --> A'             
     e( 69 - 69) =     26.72457  eV     1   --> A''            
     e( 70 - 70) =     27.01469  eV     1   --> A'             

 **************************************************************************

 **************************************************************************

                    xk=(   0.01925,   0.00000,   0.00000  )

     Band symmetry, C_s (m)     point group:

     e(  1 -  1) =    -15.90460  eV     1   --> A'             
     e(  2 -  2) =    -15.89690  eV     1   --> A'             
     e(  3 -  3) =    -15.83068  eV     1   --> A'             
     e(  4 -  4) =    -15.82261  eV     1   --> A'             
     e(  5 -  5) =     -2.79962  eV     1   --> A'             
     e(  6 -  6) =     -2.74001  eV     1   --> A'             
     e(  7 -  7) =     -0.78647  eV     1   --> A'             
     e(  8 -  8) =     -0.78103  eV     1   --> A'             
     e(  9 -  9) =     -0.77969  eV     1   --> A''            
     e( 10 - 10) =     -0.77592  eV     1   --> A''            
     e( 11 - 11) =     -0.76748  eV     1   --> A'             
     e( 12 - 12) =     -0.74266  eV     1   --> A'             
     e( 13 - 13) =     -0.74046  eV     1   --> A'             
     e( 14 - 14) =     -0.73741  eV     1   --> A''            
     e( 15 - 15) =     -0.73285  eV     1   --> A''            
     e( 16 - 16) =     -0.54963  eV     1   --> A'             
     e( 17 - 17) =      1.46942  eV     1   --> A'             
     e( 18 - 18) =      1.81904  eV     1   --> A'             
     e( 19 - 19) =      3.98512  eV     1   --> A'             
     e( 20 - 20) =      4.46710  eV     1   --> A'             
     e( 21 - 21) =      6.29338  eV     1   --> A'             
     e( 22 - 22) =      6.93317  eV     1   --> A'             
     e( 23 - 23) =      8.99632  eV     1   --> A'             
     e( 24 - 24) =      9.97973  eV     1   --> A'             
     e( 25 - 25) =     11.56258  eV     1   --> A'             
     e( 26 - 26) =     11.77240  eV     1   --> A'             
     e( 27 - 27) =     11.78831  eV     1   --> A'             
     e( 28 - 28) =     11.79180  eV     1   --> A''            
     e( 29 - 29) =     11.80995  eV     1   --> A''            
     e( 30 - 30) =     13.17592  eV     1   --> A'             
     e( 31 - 31) =     13.31724  eV     1   --> A''            
     e( 32 - 32) =     13.35972  eV     1   --> A'             
     e( 33 - 33) =     13.36186  eV     1   --> A''            
     e( 34 - 34) =     13.36446  eV     1   --> A'             
     e( 35 - 35) =     14.36496  eV     1   --> A'             
     e( 36 - 36) =     15.22207  eV     1   --> A'             
     e( 37 - 37) =     16.23064  eV     1   --> A'             
     e( 38 - 38) =     16.24408  eV     1   --> A''            
     e( 39 - 39) =     16.28040  eV     1   --> A'             
     e( 40 - 40) =     16.30992  eV     1   --> A''            
     e( 41 - 41) =     16.91459  eV     1   --> A'             
     e( 42 - 42) =     18.46196  eV     1   --> A'             
     e( 43 - 43) =     18.98185  eV     1   --> A'             
     e( 44 - 44) =     19.12541  eV     1   --> A'             
     e( 45 - 45) =     19.19652  eV     1   --> A''            
     e( 46 - 46) =     19.30892  eV     1   --> A'             
     e( 47 - 47) =     19.35124  eV     1   --> A'             
     e( 48 - 48) =     19.37935  eV     1   --> A''            
     e( 49 - 49) =     19.48589  eV     1   --> A'             
     e( 50 - 50) =     20.63587  eV     1   --> A'             
     e( 51 - 51) =     20.81757  eV     1   --> A''            
     e( 52 - 52) =     20.83675  eV     1   --> A'             
     e( 53 - 53) =     21.09813  eV     1   --> A''            
     e( 54 - 54) =     21.11899  eV     1   --> A'             
     e( 55 - 55) =     22.60620  eV     1   --> A'             
     e( 56 - 56) =     22.98888  eV     1   --> A'             
     e( 57 - 57) =     23.00822  eV     1   --> A''            
     e( 58 - 58) =     23.18459  eV     1   --> A'             
     e( 59 - 59) =     23.33891  eV     1   --> A'             
     e( 60 - 60) =     23.71083  eV     1   --> A'             
     e( 61 - 61) =     23.71396  eV     1   --> A''            
     e( 62 - 62) =     24.36500  eV     1   --> A''            
     e( 63 - 63) =     24.40722  eV     1   --> A'             
     e( 64 - 64) =     24.67857  eV     1   --> A'             
     e( 65 - 65) =     24.71889  eV     1   --> A''            
     e( 66 - 66) =     25.63659  eV     1   --> A'             
     e( 67 - 67) =     26.58566  eV     1   --> A'             
     e( 68 - 68) =     26.59329  eV     1   --> A'             
     e( 69 - 69) =     26.62695  eV     1   --> A''            
     e( 70 - 70) =     26.92551  eV     1   --> A'             

 **************************************************************************

 **************************************************************************

                    xk=(   0.00000,   0.00000,   0.00000  )

     Band symmetry, C_s (m)     point group:

     e(  1 -  1) =    -15.90599  eV     1   --> A'             
     e(  2 -  2) =    -15.89828  eV     1   --> A'             
     e(  3 -  3) =    -15.83200  eV     1   --> A'             
     e(  4 -  4) =    -15.82392  eV     1   --> A'             
     e(  5 -  5) =     -2.80148  eV     1   --> A'             
     e(  6 -  6) =     -2.74155  eV     1   --> A'             
     e(  7 -  7) =     -0.77799  eV     1   --> A''            
     e(  8 -  8) =     -0.77434  eV     1   --> A'             
     e(  9 -  9) =     -0.77423  eV     1   --> A''            
     e( 10 - 10) =     -0.77059  eV     1   --> A'             
     e( 11 - 11) =     -0.76705  eV     1   --> A'             
     e( 12 - 12) =     -0.73583  eV     1   --> A''            
     e( 13 - 13) =     -0.73232  eV     1   --> A'             
     e( 14 - 14) =     -0.73130  eV     1   --> A''            
     e( 15 - 15) =     -0.72782  eV     1   --> A'             
     e( 16 - 16) =     -0.55279  eV     1   --> A'             
     e( 17 - 17) =      1.45913  eV     1   --> A'             
     e( 18 - 18) =      1.81116  eV     1   --> A'             
     e( 19 - 19) =      3.97067  eV     1   --> A'             
     e( 20 - 20) =      4.45269  eV     1   --> A'             
     e( 21 - 21) =      6.28913  eV     1   --> A'             
     e( 22 - 22) =      6.92633  eV     1   --> A'             
     e( 23 - 23) =      8.99458  eV     1   --> A'             
     e( 24 - 24) =      9.97479  eV     1   --> A'             
     e( 25 - 25) =     11.56709  eV     1   --> A'             
     e( 26 - 26) =     11.79063  eV     1   --> A''            
     e( 27 - 27) =     11.80887  eV     1   --> A''            
     e( 28 - 28) =     11.81091  eV     1   --> A'             
     e( 29 - 29) =     11.82909  eV     1   --> A'             
     e( 30 - 30) =     13.22617  eV     1   --> A'             
     e( 31 - 31) =     13.31033  eV     1   --> A''            
     e( 32 - 32) =     13.33159  eV     1   --> A'             
     e( 33 - 33) =     13.35496  eV     1   --> A''            
     e( 34 - 34) =     13.37611  eV     1   --> A'             
     e( 35 - 35) =     14.34336  eV     1   --> A'             
     e( 36 - 36) =     15.18556  eV     1   --> A'             
     e( 37 - 37) =     16.25146  eV     1   --> A''            
     e( 38 - 38) =     16.27246  eV     1   --> A'             
     e( 39 - 39) =     16.31590  eV     1   --> A''            
     e( 40 - 40) =     16.33708  eV     1   --> A'             
     e( 41 - 41) =     16.86171  eV     1   --> A'             
     e( 42 - 42) =     18.45798  eV     1   --> A'             
     e( 43 - 43) =     18.96020  eV     1   --> A'             
     e( 44 - 44) =     19.17556  eV     1   --> A''            
     e( 45 - 45) =     19.19973  eV     1   --> A'             
     e( 46 - 46) =     19.28483  eV     1   --> A'             
     e( 47 - 47) =     19.35888  eV     1   --> A''            
     e( 48 - 48) =     19.38293  eV     1   --> A'             
     e( 49 - 49) =     19.38657  eV     1   --> A'             
     e( 50 - 50) =     20.58382  eV     1   --> A'             
     e( 51 - 51) =     20.84121  eV     1   --> A''            
     e( 52 - 52) =     20.86081  eV     1   --> A'             
     e( 53 - 53) =     21.11333  eV     1   --> A''            
     e( 54 - 54) =     21.13378  eV     1   --> A'             
     e( 55 - 55) =     22.58015  eV     1   --> A'             
     e( 56 - 56) =     22.98710  eV     1   --> A''            
     e( 57 - 57) =     23.01217  eV     1   --> A'             
     e( 58 - 58) =     23.21254  eV     1   --> A'             
     e( 59 - 59) =     23.31514  eV     1   --> A'             
     e( 60 - 60) =     23.69615  eV     1   --> A''            
     e( 61 - 61) =     23.71954  eV     1   --> A'             
     e( 62 - 62) =     24.39172  eV     1   --> A''            
     e( 63 - 63) =     24.41808  eV     1   --> A'             
     e( 64 - 64) =     24.71629  eV     1   --> A''            
     e( 65 - 65) =     24.74527  eV     1   --> A'             
     e( 66 - 66) =     25.57542  eV     1   --> A'             
     e( 67 - 67) =     26.59273  eV     1   --> A''            
     e( 68 - 68) =     26.60277  eV     1   --> A'             
     e( 69 - 69) =     26.61627  eV     1   --> A'             
     e( 70 - 70) =     26.89054  eV     1   --> A'             

 **************************************************************************
 
     BANDS        :      6.92s CPU     11.00s WALL

 
   This run was terminated on:  12:37:33  17Jun2023            

=------------------------------------------------------------------------------=
   JOB DONE.
=------------------------------------------------------------------------------=
