
     Program BANDS v.7.1 starts on 12Jun2023 at 14:24:45 

     This program is part of the open-source Quantum ESPRESSO suite
     for quantum simulation of materials; please cite
         "P. Giannozzi et al., J. Phys.:Condens. Matter 21 395502 (2009);
         "P. Giannozzi et al., J. Phys.:Condens. Matter 29 465901 (2017);
         "P. Giannozzi et al., J. Chem. Phys. 152 154105 (2020);
          URL http://www.quantum-espresso.org", 
     in publications or presentations arising from this work. More details at
     http://www.quantum-espresso.org/quote

     Parallel version (MPI), running on    16 processors

     MPI processes distributed on     1 nodes
     R & G space division:  proc/nbgrp/npool/nimage =      16
     102156 MiB available memory on the printing compute node when the environment starts
 

     Reading xml data from directory:

     ./work/Al2SO.save/
     Message from routine volume:
     axis vectors are left-handed
     file Al.pbe-n-kjpaw_psl.1.0.0.UPF: wavefunction(s)  3S 3P renormalized
     file O.pbe-n-kjpaw_psl.1.0.0.UPF: wavefunction(s)  2S 2P renormalized
     file S.pbe-n-kjpaw_psl.1.0.0.UPF: wavefunction(s)  3S 3P renormalized

     IMPORTANT: XC functional enforced from input :
     Exchange-correlation= VDW-DF2-B86R
                           (   1   4  26   0   2   0   0)
     Any further DFT definition will be discarded
     Please, verify this is what you really want

 
     Parallelization info
     --------------------
     sticks:   dense  smooth     PW     G-vecs:    dense   smooth      PW
     Min          39      39     11                 3361     3361     533
     Max          40      40     12                 3366     3366     548
     Sum         637     637    187                53817    53817    8669
 
     Using Slab Decomposition
 

     Check: negative core charge=   -0.000003


     %%%%%%%%%%%%%%%%%%%%%%%%%%%%%%%%%%%%%%%%%%%%%%%%%%%%%%%%%%%%%%%%%%%%%%%%
     %                                                                      %
     % You are using vdW-DF, which was implemented by the Thonhauser group. %
     % Please cite the following two papers that made this development      %
     % possible and the two reviews that describe the various versions:     %
     %                                                                      %
     %   T. Thonhauser et al., PRL 115, 136402 (2015).                      %
     %   T. Thonhauser et al., PRB 76, 125112 (2007).                       %
     %   K. Berland et al., Rep. Prog. Phys. 78, 066501 (2015).             %
     %   D.C. Langreth et al., J. Phys.: Condens. Matter 21, 084203 (2009). %
     %                                                                      %
     % If you are calculating stress with vdW-DF, please also cite:         %
     %                                                                      %
     %   R. Sabatini et al., J. Phys.: Condens. Matter 24, 424209 (2012).   %
     %                                                                      %
     %%%%%%%%%%%%%%%%%%%%%%%%%%%%%%%%%%%%%%%%%%%%%%%%%%%%%%%%%%%%%%%%%%%%%%%%

     %%%%%%%%%%%%%%%%%%%%%%%%%%%%%%%%%%%%%%%%%%%%%%%%%%%%%%%%%%%%%%%%%%%%%%%%
     %                                                                      %
     %  vdW-DF NEWS:                                                        %
     %                                                                      %
     %  * vdW-DF3 is now available. DOI: 10.1021/acs.jctc.0c00471           %
     %    use with input_dft = 'vdW-DF3-opt1' or 'vdW-DF3-opt2'             %
     %                                                                      %
     %  * Unscreened and range-separated vdW-DF hybrid functionals          %
     %    DOI: 10.1063/1.4986522 and 10.1088/1361-648X/ac2ad2               %
     %    use with input_dft = 'vdW-DF-cx0' (etc) and 'vdW-DF-ahcx'         %
     %                                                                      %
     %%%%%%%%%%%%%%%%%%%%%%%%%%%%%%%%%%%%%%%%%%%%%%%%%%%%%%%%%%%%%%%%%%%%%%%%


     Reading collected, re-writing distributed wavefunctions
     high-symmetry point:  0.0000 0.0000 0.0000   x coordinate   0.0000
     high-symmetry point:  0.5773 0.3336 0.0000   x coordinate   0.6667
     high-symmetry point:  0.5773 0.0000 0.0000   x coordinate   1.0003
     high-symmetry point:  0.0000 0.0000 0.0000   x coordinate   1.5776

     Plottable bands (eV) written to file Al2SO.bands.gnu
     Bands written to file Al2SO.bands

 **************************************************************************

                    xk=(   0.00000,   0.00000,   0.00000  )

     point group C_s (m)    
     there are  2 classes
     the character table:

       E     s    
A'     1.00  1.00
A''    1.00 -1.00

     the symmetry operations in each class and the name of the first element:

     E        1
                                                                 
     s        2
                                                                 

     Band symmetry, C_s (m)     point group:

     e(  1 -  1) =    -13.50854  eV     1   --> A'             
     e(  2 -  2) =    -13.23133  eV     1   --> A'             
     e(  3 -  3) =     -8.21090  eV     1   --> A'             
     e(  4 -  4) =     -7.87913  eV     1   --> A'             
     e(  5 -  5) =     -0.75657  eV     1   --> A'             
     e(  6 -  6) =      0.02943  eV     1   --> A'             
     e(  7 -  7) =      0.84207  eV     1   --> A'             
     e(  8 -  8) =      1.39614  eV     1   --> A'             
     e(  9 -  9) =      1.39724  eV     1   --> A''            
     e( 10 - 10) =      1.67028  eV     1   --> A'             
     e( 11 - 11) =      1.67139  eV     1   --> A''            
     e( 12 - 12) =      2.59251  eV     1   --> A'             
     e( 13 - 13) =      3.62516  eV     1   --> A'             
     e( 14 - 14) =      5.57288  eV     1   --> A'             
     e( 15 - 15) =      5.57601  eV     1   --> A''            
     e( 16 - 16) =      5.58067  eV     1   --> A'             
     e( 17 - 17) =      5.90862  eV     1   --> A'             
     e( 18 - 18) =      5.91178  eV     1   --> A''            
     e( 19 - 19) =      7.17111  eV     1   --> A'             
     e( 20 - 20) =      8.96859  eV     1   --> A'             
     e( 21 - 21) =     11.62409  eV     1   --> A'             
     e( 22 - 22) =     11.88238  eV     1   --> A'             
     e( 23 - 23) =     12.28075  eV     1   --> A'             
     e( 24 - 24) =     13.12341  eV     1   --> A'             
     e( 25 - 25) =     13.13045  eV     1   --> A''            

 **************************************************************************

 **************************************************************************

                    xk=(   0.01924,   0.01112,   0.00000  )

     point group C_1 (1)    
     there are  1 classes
     the character table:

       E    
A      1.00

     the symmetry operations in each class and the name of the first element:

     E        1
                                                                 

     Band symmetry, C_1 (1)     point group:

     e(  1 -  1) =    -13.50669  eV     1   --> A              
     e(  2 -  2) =    -13.22947  eV     1   --> A              
     e(  3 -  3) =     -8.20616  eV     1   --> A              
     e(  4 -  4) =     -7.87436  eV     1   --> A              
     e(  5 -  5) =     -0.75138  eV     1   --> A              
     e(  6 -  6) =      0.03066  eV     1   --> A              
     e(  7 -  7) =      0.84605  eV     1   --> A              
     e(  8 -  8) =      1.38081  eV     1   --> A              
     e(  9 -  9) =      1.39494  eV     1   --> A              
     e( 10 - 10) =      1.65429  eV     1   --> A              
     e( 11 - 11) =      1.66909  eV     1   --> A              
     e( 12 - 12) =      2.60084  eV     1   --> A              
     e( 13 - 13) =      3.63615  eV     1   --> A              
     e( 14 - 14) =      5.54075  eV     1   --> A              
     e( 15 - 15) =      5.56794  eV     1   --> A              
     e( 16 - 16) =      5.58331  eV     1   --> A              
     e( 17 - 17) =      5.87622  eV     1   --> A              
     e( 18 - 18) =      5.90367  eV     1   --> A              
     e( 19 - 19) =      7.18658  eV     1   --> A              
     e( 20 - 20) =      8.97894  eV     1   --> A              
     e( 21 - 21) =     11.62306  eV     1   --> A              
     e( 22 - 22) =     11.91059  eV     1   --> A              
     e( 23 - 23) =     12.30694  eV     1   --> A              
     e( 24 - 24) =     13.09352  eV     1   --> A              
     e( 25 - 25) =     13.14046  eV     1   --> A              

 **************************************************************************

 **************************************************************************

                    xk=(   0.03849,   0.02224,   0.00000  )

     Band symmetry, C_1 (1)     point group:

     e(  1 -  1) =    -13.50120  eV     1   --> A              
     e(  2 -  2) =    -13.22396  eV     1   --> A              
     e(  3 -  3) =     -8.19197  eV     1   --> A              
     e(  4 -  4) =     -7.86008  eV     1   --> A              
     e(  5 -  5) =     -0.73588  eV     1   --> A              
     e(  6 -  6) =      0.03401  eV     1   --> A              
     e(  7 -  7) =      0.85790  eV     1   --> A              
     e(  8 -  8) =      1.33424  eV     1   --> A              
     e(  9 -  9) =      1.38867  eV     1   --> A              
     e( 10 - 10) =      1.60943  eV     1   --> A              
     e( 11 - 11) =      1.66283  eV     1   --> A              
     e( 12 - 12) =      2.62324  eV     1   --> A              
     e( 13 - 13) =      3.66808  eV     1   --> A              
     e( 14 - 14) =      5.44592  eV     1   --> A              
     e( 15 - 15) =      5.54565  eV     1   --> A              
     e( 16 - 16) =      5.59010  eV     1   --> A              
     e( 17 - 17) =      5.78024  eV     1   --> A              
     e( 18 - 18) =      5.88138  eV     1   --> A              
     e( 19 - 19) =      7.23204  eV     1   --> A              
     e( 20 - 20) =      9.00957  eV     1   --> A              
     e( 21 - 21) =     11.61786  eV     1   --> A              
     e( 22 - 22) =     11.99121  eV     1   --> A              
     e( 23 - 23) =     12.38198  eV     1   --> A              
     e( 24 - 24) =     13.00444  eV     1   --> A              
     e( 25 - 25) =     13.17384  eV     1   --> A              

 **************************************************************************

 **************************************************************************

                    xk=(   0.05773,   0.03336,   0.00000  )

     Band symmetry, C_1 (1)     point group:

     e(  1 -  1) =    -13.49211  eV     1   --> A              
     e(  2 -  2) =    -13.21484  eV     1   --> A              
     e(  3 -  3) =     -8.16839  eV     1   --> A              
     e(  4 -  4) =     -7.83636  eV     1   --> A              
     e(  5 -  5) =     -0.71019  eV     1   --> A              
     e(  6 -  6) =      0.03837  eV     1   --> A              
     e(  7 -  7) =      0.87740  eV     1   --> A              
     e(  8 -  8) =      1.25835  eV     1   --> A              
     e(  9 -  9) =      1.37813  eV     1   --> A              
     e( 10 - 10) =      1.54560  eV     1   --> A              
     e( 11 - 11) =      1.65230  eV     1   --> A              
     e( 12 - 12) =      2.65411  eV     1   --> A              
     e( 13 - 13) =      3.71808  eV     1   --> A              
     e( 14 - 14) =      5.29669  eV     1   --> A              
     e( 15 - 15) =      5.50836  eV     1   --> A              
     e( 16 - 16) =      5.59852  eV     1   --> A              
     e( 17 - 17) =      5.63144  eV     1   --> A              
     e( 18 - 18) =      5.84409  eV     1   --> A              
     e( 19 - 19) =      7.30526  eV     1   --> A              
     e( 20 - 20) =      9.05936  eV     1   --> A              
     e( 21 - 21) =     11.60466  eV     1   --> A              
     e( 22 - 22) =     12.11219  eV     1   --> A              
     e( 23 - 23) =     12.49346  eV     1   --> A              
     e( 24 - 24) =     12.87084  eV     1   --> A              
     e( 25 - 25) =     13.18639  eV     1   --> A              

 **************************************************************************

 **************************************************************************

                    xk=(   0.07697,   0.04448,   0.00000  )

     Band symmetry, C_1 (1)     point group:

     e(  1 -  1) =    -13.47954  eV     1   --> A              
     e(  2 -  2) =    -13.20222  eV     1   --> A              
     e(  3 -  3) =     -8.13552  eV     1   --> A              
     e(  4 -  4) =     -7.80330  eV     1   --> A              
     e(  5 -  5) =     -0.67461  eV     1   --> A              
     e(  6 -  6) =      0.04187  eV     1   --> A              
     e(  7 -  7) =      0.90392  eV     1   --> A              
     e(  8 -  8) =      1.15715  eV     1   --> A              
     e(  9 -  9) =      1.36319  eV     1   --> A              
     e( 10 - 10) =      1.47306  eV     1   --> A              
     e( 11 - 11) =      1.63741  eV     1   --> A              
     e( 12 - 12) =      2.68807  eV     1   --> A              
     e( 13 - 13) =      3.78139  eV     1   --> A              
     e( 14 - 14) =      5.10395  eV     1   --> A              
     e( 15 - 15) =      5.43553  eV     1   --> A              
     e( 16 - 16) =      5.45578  eV     1   --> A              
     e( 17 - 17) =      5.61294  eV     1   --> A              
     e( 18 - 18) =      5.79147  eV     1   --> A              
     e( 19 - 19) =      7.40373  eV     1   --> A              
     e( 20 - 20) =      9.12656  eV     1   --> A              
     e( 21 - 21) =     11.58055  eV     1   --> A              
     e( 22 - 22) =     12.25460  eV     1   --> A              
     e( 23 - 23) =     12.60281  eV     1   --> A              
     e( 24 - 24) =     12.72624  eV     1   --> A              
     e( 25 - 25) =     13.05933  eV     1   --> A              

 **************************************************************************

 **************************************************************************

                    xk=(   0.09621,   0.05560,   0.00000  )

     Band symmetry, C_1 (1)     point group:

     e(  1 -  1) =    -13.46362  eV     1   --> A              
     e(  2 -  2) =    -13.18624  eV     1   --> A              
     e(  3 -  3) =     -8.09353  eV     1   --> A              
     e(  4 -  4) =     -7.76104  eV     1   --> A              
     e(  5 -  5) =     -0.62962  eV     1   --> A              
     e(  6 -  6) =      0.04181  eV     1   --> A              
     e(  7 -  7) =      0.93389  eV     1   --> A              
     e(  8 -  8) =      1.03942  eV     1   --> A              
     e(  9 -  9) =      1.34367  eV     1   --> A              
     e( 10 - 10) =      1.40041  eV     1   --> A              
     e( 11 - 11) =      1.61800  eV     1   --> A              
     e( 12 - 12) =      2.72139  eV     1   --> A              
     e( 13 - 13) =      3.85096  eV     1   --> A              
     e( 14 - 14) =      4.87999  eV     1   --> A              
     e( 15 - 15) =      5.21257  eV     1   --> A              
     e( 16 - 16) =      5.38763  eV     1   --> A              
     e( 17 - 17) =      5.62473  eV     1   --> A              
     e( 18 - 18) =      5.72332  eV     1   --> A              
     e( 19 - 19) =      7.52497  eV     1   --> A              
     e( 20 - 20) =      9.20894  eV     1   --> A              
     e( 21 - 21) =     11.54362  eV     1   --> A              
     e( 22 - 22) =     12.37799  eV     1   --> A              
     e( 23 - 23) =     12.51727  eV     1   --> A              
     e( 24 - 24) =     12.75141  eV     1   --> A              
     e( 25 - 25) =     12.93520  eV     1   --> A              

 **************************************************************************

 **************************************************************************

                    xk=(   0.11546,   0.06672,   0.00000  )

     Band symmetry, C_1 (1)     point group:

     e(  1 -  1) =    -13.44454  eV     1   --> A              
     e(  2 -  2) =    -13.16709  eV     1   --> A              
     e(  3 -  3) =     -8.04261  eV     1   --> A              
     e(  4 -  4) =     -7.70980  eV     1   --> A              
     e(  5 -  5) =     -0.57606  eV     1   --> A              
     e(  6 -  6) =      0.03486  eV     1   --> A              
     e(  7 -  7) =      0.88650  eV     1   --> A              
     e(  8 -  8) =      0.99156  eV     1   --> A              
     e(  9 -  9) =      1.31871  eV     1   --> A              
     e( 10 - 10) =      1.33565  eV     1   --> A              
     e( 11 - 11) =      1.59389  eV     1   --> A              
     e( 12 - 12) =      2.75160  eV     1   --> A              
     e( 13 - 13) =      3.91476  eV     1   --> A              
     e( 14 - 14) =      4.63852  eV     1   --> A              
     e( 15 - 15) =      4.97530  eV     1   --> A              
     e( 16 - 16) =      5.30368  eV     1   --> A              
     e( 17 - 17) =      5.63015  eV     1   --> A              
     e( 18 - 18) =      5.64453  eV     1   --> A              
     e( 19 - 19) =      7.66649  eV     1   --> A              
     e( 20 - 20) =      9.30384  eV     1   --> A              
     e( 21 - 21) =     11.49188  eV     1   --> A              
     e( 22 - 22) =     12.26243  eV     1   --> A              
     e( 23 - 23) =     12.57623  eV     1   --> A              
     e( 24 - 24) =     12.66876  eV     1   --> A              
     e( 25 - 25) =     12.96508  eV     1   --> A              

 **************************************************************************

 **************************************************************************

                    xk=(   0.13470,   0.07784,   0.00000  )

     Band symmetry, C_1 (1)     point group:

     e(  1 -  1) =    -13.42253  eV     1   --> A              
     e(  2 -  2) =    -13.14499  eV     1   --> A              
     e(  3 -  3) =     -7.98301  eV     1   --> A              
     e(  4 -  4) =     -7.64982  eV     1   --> A              
     e(  5 -  5) =     -0.51552  eV     1   --> A              
     e(  6 -  6) =      0.01788  eV     1   --> A              
     e(  7 -  7) =      0.74672  eV     1   --> A              
     e(  8 -  8) =      1.03303  eV     1   --> A              
     e(  9 -  9) =      1.28043  eV     1   --> A              
     e( 10 - 10) =      1.29397  eV     1   --> A              
     e( 11 - 11) =      1.56494  eV     1   --> A              
     e( 12 - 12) =      2.77630  eV     1   --> A              
     e( 13 - 13) =      3.94541  eV     1   --> A              
     e( 14 - 14) =      4.39773  eV     1   --> A              
     e( 15 - 15) =      4.74890  eV     1   --> A              
     e( 16 - 16) =      5.20387  eV     1   --> A              
     e( 17 - 17) =      5.53752  eV     1   --> A              
     e( 18 - 18) =      5.64550  eV     1   --> A              
     e( 19 - 19) =      7.82575  eV     1   --> A              
     e( 20 - 20) =      9.40807  eV     1   --> A              
     e( 21 - 21) =     11.42242  eV     1   --> A              
     e( 22 - 22) =     12.05720  eV     1   --> A              
     e( 23 - 23) =     12.49262  eV     1   --> A              
     e( 24 - 24) =     12.70214  eV     1   --> A              
     e( 25 - 25) =     13.02640  eV     1   --> A              

 **************************************************************************

 **************************************************************************

                    xk=(   0.15394,   0.08896,   0.00000  )

     Band symmetry, C_1 (1)     point group:

     e(  1 -  1) =    -13.39784  eV     1   --> A              
     e(  2 -  2) =    -13.12020  eV     1   --> A              
     e(  3 -  3) =     -7.91507  eV     1   --> A              
     e(  4 -  4) =     -7.58141  eV     1   --> A              
     e(  5 -  5) =     -0.45135  eV     1   --> A              
     e(  6 -  6) =     -0.01019  eV     1   --> A              
     e(  7 -  7) =      0.59933  eV     1   --> A              
     e(  8 -  8) =      1.08114  eV     1   --> A              
     e(  9 -  9) =      1.24643  eV     1   --> A              
     e( 10 - 10) =      1.26545  eV     1   --> A              
     e( 11 - 11) =      1.53113  eV     1   --> A              
     e( 12 - 12) =      2.79178  eV     1   --> A              
     e( 13 - 13) =      3.88216  eV     1   --> A              
     e( 14 - 14) =      4.17967  eV     1   --> A              
     e( 15 - 15) =      4.58748  eV     1   --> A              
     e( 16 - 16) =      5.08834  eV     1   --> A              
     e( 17 - 17) =      5.42131  eV     1   --> A              
     e( 18 - 18) =      5.65109  eV     1   --> A              
     e( 19 - 19) =      8.00014  eV     1   --> A              
     e( 20 - 20) =      9.51794  eV     1   --> A              
     e( 21 - 21) =     11.33066  eV     1   --> A              
     e( 22 - 22) =     11.84755  eV     1   --> A              
     e( 23 - 23) =     12.29914  eV     1   --> A              
     e( 24 - 24) =     12.81296  eV     1   --> A              
     e( 25 - 25) =     12.91309  eV     1   --> A              

 **************************************************************************

 **************************************************************************

                    xk=(   0.17319,   0.10008,   0.00000  )

     Band symmetry, C_1 (1)     point group:

     e(  1 -  1) =    -13.37077  eV     1   --> A              
     e(  2 -  2) =    -13.09302  eV     1   --> A              
     e(  3 -  3) =     -7.83915  eV     1   --> A              
     e(  4 -  4) =     -7.50496  eV     1   --> A              
     e(  5 -  5) =     -0.39168  eV     1   --> A              
     e(  6 -  6) =     -0.04437  eV     1   --> A              
     e(  7 -  7) =      0.45257  eV     1   --> A              
     e(  8 -  8) =      1.12670  eV     1   --> A              
     e(  9 -  9) =      1.21192  eV     1   --> A              
     e( 10 - 10) =      1.26261  eV     1   --> A              
     e( 11 - 11) =      1.49273  eV     1   --> A              
     e( 12 - 12) =      2.79090  eV     1   --> A              
     e( 13 - 13) =      3.70310  eV     1   --> A              
     e( 14 - 14) =      3.96611  eV     1   --> A              
     e( 15 - 15) =      4.54817  eV     1   --> A              
     e( 16 - 16) =      4.95765  eV     1   --> A              
     e( 17 - 17) =      5.28942  eV     1   --> A              
     e( 18 - 18) =      5.65348  eV     1   --> A              
     e( 19 - 19) =      8.18714  eV     1   --> A              
     e( 20 - 20) =      9.62904  eV     1   --> A              
     e( 21 - 21) =     11.21031  eV     1   --> A              
     e( 22 - 22) =     11.64367  eV     1   --> A              
     e( 23 - 23) =     12.10063  eV     1   --> A              
     e( 24 - 24) =     12.73514  eV     1   --> A              
     e( 25 - 25) =     12.92347  eV     1   --> A              

 **************************************************************************

 **************************************************************************

                    xk=(   0.19243,   0.11120,   0.00000  )

     Band symmetry, C_1 (1)     point group:

     e(  1 -  1) =    -13.34164  eV     1   --> A              
     e(  2 -  2) =    -13.06378  eV     1   --> A              
     e(  3 -  3) =     -7.75570  eV     1   --> A              
     e(  4 -  4) =     -7.42091  eV     1   --> A              
     e(  5 -  5) =     -0.35655  eV     1   --> A              
     e(  6 -  6) =     -0.06743  eV     1   --> A              
     e(  7 -  7) =      0.31300  eV     1   --> A              
     e(  8 -  8) =      1.16042  eV     1   --> A              
     e(  9 -  9) =      1.17261  eV     1   --> A              
     e( 10 - 10) =      1.29577  eV     1   --> A              
     e( 11 - 11) =      1.45152  eV     1   --> A              
     e( 12 - 12) =      2.75960  eV     1   --> A              
     e( 13 - 13) =      3.48435  eV     1   --> A              
     e( 14 - 14) =      3.73989  eV     1   --> A              
     e( 15 - 15) =      4.59360  eV     1   --> A              
     e( 16 - 16) =      4.81331  eV     1   --> A              
     e( 17 - 17) =      5.14303  eV     1   --> A              
     e( 18 - 18) =      5.65232  eV     1   --> A              
     e( 19 - 19) =      8.38431  eV     1   --> A              
     e( 20 - 20) =      9.73614  eV     1   --> A              
     e( 21 - 21) =     11.05644  eV     1   --> A              
     e( 22 - 22) =     11.44833  eV     1   --> A              
     e( 23 - 23) =     11.90704  eV     1   --> A              
     e( 24 - 24) =     12.57915  eV     1   --> A              
     e( 25 - 25) =     12.83504  eV     1   --> A              

 **************************************************************************

 **************************************************************************

                    xk=(   0.21167,   0.12232,   0.00000  )

     Band symmetry, C_1 (1)     point group:

     e(  1 -  1) =    -13.31082  eV     1   --> A              
     e(  2 -  2) =    -13.03283  eV     1   --> A              
     e(  3 -  3) =     -7.66527  eV     1   --> A              
     e(  4 -  4) =     -7.32979  eV     1   --> A              
     e(  5 -  5) =     -0.37293  eV     1   --> A              
     e(  6 -  6) =     -0.06331  eV     1   --> A              
     e(  7 -  7) =      0.19671  eV     1   --> A              
     e(  8 -  8) =      1.11550  eV     1   --> A              
     e(  9 -  9) =      1.20255  eV     1   --> A              
     e( 10 - 10) =      1.33857  eV     1   --> A              
     e( 11 - 11) =      1.42205  eV     1   --> A              
     e( 12 - 12) =      2.67631  eV     1   --> A              
     e( 13 - 13) =      3.27052  eV     1   --> A              
     e( 14 - 14) =      3.53798  eV     1   --> A              
     e( 15 - 15) =      4.63444  eV     1   --> A              
     e( 16 - 16) =      4.69192  eV     1   --> A              
     e( 17 - 17) =      4.98494  eV     1   --> A              
     e( 18 - 18) =      5.64765  eV     1   --> A              
     e( 19 - 19) =      8.58938  eV     1   --> A              
     e( 20 - 20) =      9.83296  eV     1   --> A              
     e( 21 - 21) =     10.87158  eV     1   --> A              
     e( 22 - 22) =     11.25510  eV     1   --> A              
     e( 23 - 23) =     11.72961  eV     1   --> A              
     e( 24 - 24) =     12.42011  eV     1   --> A              
     e( 25 - 25) =     12.64894  eV     1   --> A              

 **************************************************************************

 **************************************************************************

                    xk=(   0.23092,   0.13343,   0.00000  )

     Band symmetry, C_1 (1)     point group:

     e(  1 -  1) =    -13.27868  eV     1   --> A              
     e(  2 -  2) =    -13.00057  eV     1   --> A              
     e(  3 -  3) =     -7.56848  eV     1   --> A              
     e(  4 -  4) =     -7.23223  eV     1   --> A              
     e(  5 -  5) =     -0.43563  eV     1   --> A              
     e(  6 -  6) =     -0.08623  eV     1   --> A              
     e(  7 -  7) =      0.15843  eV     1   --> A              
     e(  8 -  8) =      1.05823  eV     1   --> A              
     e(  9 -  9) =      1.23695  eV     1   --> A              
     e( 10 - 10) =      1.32365  eV     1   --> A              
     e( 11 - 11) =      1.46289  eV     1   --> A              
     e( 12 - 12) =      2.52926  eV     1   --> A              
     e( 13 - 13) =      3.05943  eV     1   --> A              
     e( 14 - 14) =      3.40453  eV     1   --> A              
     e( 15 - 15) =      4.47671  eV     1   --> A              
     e( 16 - 16) =      4.74059  eV     1   --> A              
     e( 17 - 17) =      4.84274  eV     1   --> A              
     e( 18 - 18) =      5.63977  eV     1   --> A              
     e( 19 - 19) =      8.80013  eV     1   --> A              
     e( 20 - 20) =      9.91200  eV     1   --> A              
     e( 21 - 21) =     10.66594  eV     1   --> A              
     e( 22 - 22) =     11.05314  eV     1   --> A              
     e( 23 - 23) =     11.57676  eV     1   --> A              
     e( 24 - 24) =     12.24074  eV     1   --> A              
     e( 25 - 25) =     12.50316  eV     1   --> A              

 **************************************************************************

 **************************************************************************

                    xk=(   0.25016,   0.14455,   0.00000  )

     Band symmetry, C_1 (1)     point group:

     e(  1 -  1) =    -13.24564  eV     1   --> A              
     e(  2 -  2) =    -12.96739  eV     1   --> A              
     e(  3 -  3) =     -7.46606  eV     1   --> A              
     e(  4 -  4) =     -7.12894  eV     1   --> A              
     e(  5 -  5) =     -0.52050  eV     1   --> A              
     e(  6 -  6) =     -0.17819  eV     1   --> A              
     e(  7 -  7) =      0.22109  eV     1   --> A              
     e(  8 -  8) =      0.99466  eV     1   --> A              
     e(  9 -  9) =      1.23600  eV     1   --> A              
     e( 10 - 10) =      1.30594  eV     1   --> A              
     e( 11 - 11) =      1.54258  eV     1   --> A              
     e( 12 - 12) =      2.33695  eV     1   --> A              
     e( 13 - 13) =      2.84782  eV     1   --> A              
     e( 14 - 14) =      3.34320  eV     1   --> A              
     e( 15 - 15) =      4.29576  eV     1   --> A              
     e( 16 - 16) =      4.60650  eV     1   --> A              
     e( 17 - 17) =      4.88804  eV     1   --> A              
     e( 18 - 18) =      5.62936  eV     1   --> A              
     e( 19 - 19) =      9.01410  eV     1   --> A              
     e( 20 - 20) =      9.96405  eV     1   --> A              
     e( 21 - 21) =     10.45213  eV     1   --> A              
     e( 22 - 22) =     10.83800  eV     1   --> A              
     e( 23 - 23) =     11.45002  eV     1   --> A              
     e( 24 - 24) =     12.04347  eV     1   --> A              
     e( 25 - 25) =     12.40879  eV     1   --> A              

 **************************************************************************

 **************************************************************************

                    xk=(   0.26940,   0.15567,   0.00000  )

     Band symmetry, C_1 (1)     point group:

     e(  1 -  1) =    -13.21211  eV     1   --> A              
     e(  2 -  2) =    -12.93373  eV     1   --> A              
     e(  3 -  3) =     -7.35886  eV     1   --> A              
     e(  4 -  4) =     -7.02079  eV     1   --> A              
     e(  5 -  5) =     -0.61289  eV     1   --> A              
     e(  6 -  6) =     -0.28938  eV     1   --> A              
     e(  7 -  7) =      0.32375  eV     1   --> A              
     e(  8 -  8) =      0.92516  eV     1   --> A              
     e(  9 -  9) =      1.17684  eV     1   --> A              
     e( 10 - 10) =      1.32566  eV     1   --> A              
     e( 11 - 11) =      1.62827  eV     1   --> A              
     e( 12 - 12) =      2.13008  eV     1   --> A              
     e( 13 - 13) =      2.65439  eV     1   --> A              
     e( 14 - 14) =      3.32382  eV     1   --> A              
     e( 15 - 15) =      4.10597  eV     1   --> A              
     e( 16 - 16) =      4.41570  eV     1   --> A              
     e( 17 - 17) =      4.97912  eV     1   --> A              
     e( 18 - 18) =      5.61768  eV     1   --> A              
     e( 19 - 19) =      9.22796  eV     1   --> A              
     e( 20 - 20) =      9.97336  eV     1   --> A              
     e( 21 - 21) =     10.24855  eV     1   --> A              
     e( 22 - 22) =     10.61282  eV     1   --> A              
     e( 23 - 23) =     11.34597  eV     1   --> A              
     e( 24 - 24) =     11.84652  eV     1   --> A              
     e( 25 - 25) =     12.35627  eV     1   --> A              

 **************************************************************************

 **************************************************************************

                    xk=(   0.28864,   0.16679,   0.00000  )

     Band symmetry, C_1 (1)     point group:

     e(  1 -  1) =    -13.17852  eV     1   --> A              
     e(  2 -  2) =    -12.89999  eV     1   --> A              
     e(  3 -  3) =     -7.24785  eV     1   --> A              
     e(  4 -  4) =     -6.90873  eV     1   --> A              
     e(  5 -  5) =     -0.70524  eV     1   --> A              
     e(  6 -  6) =     -0.39834  eV     1   --> A              
     e(  7 -  7) =      0.43815  eV     1   --> A              
     e(  8 -  8) =      0.85066  eV     1   --> A              
     e(  9 -  9) =      1.10253  eV     1   --> A              
     e( 10 - 10) =      1.32984  eV     1   --> A              
     e( 11 - 11) =      1.70078  eV     1   --> A              
     e( 12 - 12) =      1.94008  eV     1   --> A              
     e( 13 - 13) =      2.50321  eV     1   --> A              
     e( 14 - 14) =      3.32277  eV     1   --> A              
     e( 15 - 15) =      3.91116  eV     1   --> A              
     e( 16 - 16) =      4.21410  eV     1   --> A              
     e( 17 - 17) =      5.06697  eV     1   --> A              
     e( 18 - 18) =      5.60681  eV     1   --> A              
     e( 19 - 19) =      9.43516  eV     1   --> A              
     e( 20 - 20) =      9.89184  eV     1   --> A              
     e( 21 - 21) =     10.10920  eV     1   --> A              
     e( 22 - 22) =     10.38429  eV     1   --> A              
     e( 23 - 23) =     11.25925  eV     1   --> A              
     e( 24 - 24) =     11.66289  eV     1   --> A              
     e( 25 - 25) =     12.33884  eV     1   --> A              

 **************************************************************************

 **************************************************************************

                    xk=(   0.30789,   0.17791,   0.00000  )

     Band symmetry, C_1 (1)     point group:

     e(  1 -  1) =    -13.14529  eV     1   --> A              
     e(  2 -  2) =    -12.86663  eV     1   --> A              
     e(  3 -  3) =     -7.13416  eV     1   --> A              
     e(  4 -  4) =     -6.79390  eV     1   --> A              
     e(  5 -  5) =     -0.79311  eV     1   --> A              
     e(  6 -  6) =     -0.49925  eV     1   --> A              
     e(  7 -  7) =      0.54707  eV     1   --> A              
     e(  8 -  8) =      0.77448  eV     1   --> A              
     e(  9 -  9) =      1.02443  eV     1   --> A              
     e( 10 - 10) =      1.29708  eV     1   --> A              
     e( 11 - 11) =      1.66368  eV     1   --> A              
     e( 12 - 12) =      1.86897  eV     1   --> A              
     e( 13 - 13) =      2.41714  eV     1   --> A              
     e( 14 - 14) =      3.32444  eV     1   --> A              
     e( 15 - 15) =      3.71781  eV     1   --> A              
     e( 16 - 16) =      4.00612  eV     1   --> A              
     e( 17 - 17) =      5.14425  eV     1   --> A              
     e( 18 - 18) =      5.59995  eV     1   --> A              
     e( 19 - 19) =      9.61316  eV     1   --> A              
     e( 20 - 20) =      9.71355  eV     1   --> A              
     e( 21 - 21) =     10.05592  eV     1   --> A              
     e( 22 - 22) =     10.16843  eV     1   --> A              
     e( 23 - 23) =     11.18169  eV     1   --> A              
     e( 24 - 24) =     11.50284  eV     1   --> A              
     e( 25 - 25) =     12.34995  eV     1   --> A              

 **************************************************************************

 **************************************************************************

                    xk=(   0.32713,   0.18903,   0.00000  )

     Band symmetry, C_1 (1)     point group:

     e(  1 -  1) =    -13.11286  eV     1   --> A              
     e(  2 -  2) =    -12.83406  eV     1   --> A              
     e(  3 -  3) =     -7.01906  eV     1   --> A              
     e(  4 -  4) =     -6.67755  eV     1   --> A              
     e(  5 -  5) =     -0.87348  eV     1   --> A              
     e(  6 -  6) =     -0.58966  eV     1   --> A              
     e(  7 -  7) =      0.60620  eV     1   --> A              
     e(  8 -  8) =      0.71586  eV     1   --> A              
     e(  9 -  9) =      0.95969  eV     1   --> A              
     e( 10 - 10) =      1.22551  eV     1   --> A              
     e( 11 - 11) =      1.51226  eV     1   --> A              
     e( 12 - 12) =      1.92430  eV     1   --> A              
     e( 13 - 13) =      2.40583  eV     1   --> A              
     e( 14 - 14) =      3.30399  eV     1   --> A              
     e( 15 - 15) =      3.54713  eV     1   --> A              
     e( 16 - 16) =      3.79453  eV     1   --> A              
     e( 17 - 17) =      5.20518  eV     1   --> A              
     e( 18 - 18) =      5.60126  eV     1   --> A              
     e( 19 - 19) =      9.49359  eV     1   --> A              
     e( 20 - 20) =      9.71625  eV     1   --> A              
     e( 21 - 21) =      9.93892  eV     1   --> A              
     e( 22 - 22) =     10.11762  eV     1   --> A              
     e( 23 - 23) =     11.10101  eV     1   --> A              
     e( 24 - 24) =     11.37853  eV     1   --> A              
     e( 25 - 25) =     12.28004  eV     1   --> A              

 **************************************************************************

 **************************************************************************

                    xk=(   0.34637,   0.20015,   0.00000  )

     Band symmetry, C_1 (1)     point group:

     e(  1 -  1) =    -13.08162  eV     1   --> A              
     e(  2 -  2) =    -12.80269  eV     1   --> A              
     e(  3 -  3) =     -6.90396  eV     1   --> A              
     e(  4 -  4) =     -6.56113  eV     1   --> A              
     e(  5 -  5) =     -0.94423  eV     1   --> A              
     e(  6 -  6) =     -0.66813  eV     1   --> A              
     e(  7 -  7) =      0.55519  eV     1   --> A              
     e(  8 -  8) =      0.68040  eV     1   --> A              
     e(  9 -  9) =      0.94161  eV     1   --> A              
     e( 10 - 10) =      1.13975  eV     1   --> A              
     e( 11 - 11) =      1.37061  eV     1   --> A              
     e( 12 - 12) =      1.99287  eV     1   --> A              
     e( 13 - 13) =      2.45576  eV     1   --> A              
     e( 14 - 14) =      3.19964  eV     1   --> A              
     e( 15 - 15) =      3.45802  eV     1   --> A              
     e( 16 - 16) =      3.58396  eV     1   --> A              
     e( 17 - 17) =      5.24574  eV     1   --> A              
     e( 18 - 18) =      5.61402  eV     1   --> A              
     e( 19 - 19) =      9.28286  eV     1   --> A              
     e( 20 - 20) =      9.61071  eV     1   --> A              
     e( 21 - 21) =      9.83963  eV     1   --> A              
     e( 22 - 22) =     10.24496  eV     1   --> A              
     e( 23 - 23) =     11.00783  eV     1   --> A              
     e( 24 - 24) =     11.29964  eV     1   --> A              
     e( 25 - 25) =     12.14373  eV     1   --> A              

 **************************************************************************

 **************************************************************************

                    xk=(   0.36562,   0.21127,   0.00000  )

     Band symmetry, C_1 (1)     point group:

     e(  1 -  1) =    -13.05196  eV     1   --> A              
     e(  2 -  2) =    -12.77290  eV     1   --> A              
     e(  3 -  3) =     -6.79044  eV     1   --> A              
     e(  4 -  4) =     -6.44621  eV     1   --> A              
     e(  5 -  5) =     -1.00377  eV     1   --> A              
     e(  6 -  6) =     -0.73365  eV     1   --> A              
     e(  7 -  7) =      0.46508  eV     1   --> A              
     e(  8 -  8) =      0.59731  eV     1   --> A              
     e(  9 -  9) =      0.91247  eV     1   --> A              
     e( 10 - 10) =      1.06959  eV     1   --> A              
     e( 11 - 11) =      1.30365  eV     1   --> A              
     e( 12 - 12) =      2.06031  eV     1   --> A              
     e( 13 - 13) =      2.54230  eV     1   --> A              
     e( 14 - 14) =      3.02327  eV     1   --> A              
     e( 15 - 15) =      3.35453  eV     1   --> A              
     e( 16 - 16) =      3.46254  eV     1   --> A              
     e( 17 - 17) =      5.26678  eV     1   --> A              
     e( 18 - 18) =      5.63735  eV     1   --> A              
     e( 19 - 19) =      9.07559  eV     1   --> A              
     e( 20 - 20) =      9.41005  eV     1   --> A              
     e( 21 - 21) =      9.78918  eV     1   --> A              
     e( 22 - 22) =     10.41948  eV     1   --> A              
     e( 23 - 23) =     10.90774  eV     1   --> A              
     e( 24 - 24) =     11.26366  eV     1   --> A              
     e( 25 - 25) =     12.00419  eV     1   --> A              

 **************************************************************************

 **************************************************************************

                    xk=(   0.38486,   0.22239,   0.00000  )

     Band symmetry, C_1 (1)     point group:

     e(  1 -  1) =    -13.02423  eV     1   --> A              
     e(  2 -  2) =    -12.74505  eV     1   --> A              
     e(  3 -  3) =     -6.68020  eV     1   --> A              
     e(  4 -  4) =     -6.33452  eV     1   --> A              
     e(  5 -  5) =     -1.05102  eV     1   --> A              
     e(  6 -  6) =     -0.78556  eV     1   --> A              
     e(  7 -  7) =      0.36651  eV     1   --> A              
     e(  8 -  8) =      0.49100  eV     1   --> A              
     e(  9 -  9) =      0.82610  eV     1   --> A              
     e( 10 - 10) =      0.97267  eV     1   --> A              
     e( 11 - 11) =      1.36492  eV     1   --> A              
     e( 12 - 12) =      2.12241  eV     1   --> A              
     e( 13 - 13) =      2.64013  eV     1   --> A              
     e( 14 - 14) =      2.83829  eV     1   --> A              
     e( 15 - 15) =      3.14835  eV     1   --> A              
     e( 16 - 16) =      3.46639  eV     1   --> A              
     e( 17 - 17) =      5.27463  eV     1   --> A              
     e( 18 - 18) =      5.66575  eV     1   --> A              
     e( 19 - 19) =      8.87515  eV     1   --> A              
     e( 20 - 20) =      9.20084  eV     1   --> A              
     e( 21 - 21) =      9.75003  eV     1   --> A              
     e( 22 - 22) =     10.58910  eV     1   --> A              
     e( 23 - 23) =     10.81316  eV     1   --> A              
     e( 24 - 24) =     11.26626  eV     1   --> A              
     e( 25 - 25) =     11.86546  eV     1   --> A              

 **************************************************************************

 **************************************************************************

                    xk=(   0.40410,   0.23351,   0.00000  )

     Band symmetry, C_1 (1)     point group:

     e(  1 -  1) =    -12.99872  eV     1   --> A              
     e(  2 -  2) =    -12.71944  eV     1   --> A              
     e(  3 -  3) =     -6.57504  eV     1   --> A              
     e(  4 -  4) =     -6.22788  eV     1   --> A              
     e(  5 -  5) =     -1.08517  eV     1   --> A              
     e(  6 -  6) =     -0.82337  eV     1   --> A              
     e(  7 -  7) =      0.26490  eV     1   --> A              
     e(  8 -  8) =      0.38291  eV     1   --> A              
     e(  9 -  9) =      0.72568  eV     1   --> A              
     e( 10 - 10) =      0.86214  eV     1   --> A              
     e( 11 - 11) =      1.48362  eV     1   --> A              
     e( 12 - 12) =      2.17009  eV     1   --> A              
     e( 13 - 13) =      2.62126  eV     1   --> A              
     e( 14 - 14) =      2.77808  eV     1   --> A              
     e( 15 - 15) =      2.94742  eV     1   --> A              
     e( 16 - 16) =      3.48021  eV     1   --> A              
     e( 17 - 17) =      5.27733  eV     1   --> A              
     e( 18 - 18) =      5.69300  eV     1   --> A              
     e( 19 - 19) =      8.68338  eV     1   --> A              
     e( 20 - 20) =      8.99748  eV     1   --> A              
     e( 21 - 21) =      9.72612  eV     1   --> A              
     e( 22 - 22) =     10.70932  eV     1   --> A              
     e( 23 - 23) =     10.74830  eV     1   --> A              
     e( 24 - 24) =     11.31076  eV     1   --> A              
     e( 25 - 25) =     11.73305  eV     1   --> A              

 **************************************************************************

 **************************************************************************

                    xk=(   0.42334,   0.24463,   0.00000  )

     Band symmetry, C_1 (1)     point group:

     e(  1 -  1) =    -12.97571  eV     1   --> A              
     e(  2 -  2) =    -12.69632  eV     1   --> A              
     e(  3 -  3) =     -6.47678  eV     1   --> A              
     e(  4 -  4) =     -6.12814  eV     1   --> A              
     e(  5 -  5) =     -1.10577  eV     1   --> A              
     e(  6 -  6) =     -0.84684  eV     1   --> A              
     e(  7 -  7) =      0.16249  eV     1   --> A              
     e(  8 -  8) =      0.28226  eV     1   --> A              
     e(  9 -  9) =      0.62749  eV     1   --> A              
     e( 10 - 10) =      0.76265  eV     1   --> A              
     e( 11 - 11) =      1.61431  eV     1   --> A              
     e( 12 - 12) =      2.17574  eV     1   --> A              
     e( 13 - 13) =      2.48492  eV     1   --> A              
     e( 14 - 14) =      2.72371  eV     1   --> A              
     e( 15 - 15) =      2.89958  eV     1   --> A              
     e( 16 - 16) =      3.49716  eV     1   --> A              
     e( 17 - 17) =      5.28161  eV     1   --> A              
     e( 18 - 18) =      5.71521  eV     1   --> A              
     e( 19 - 19) =      8.50188  eV     1   --> A              
     e( 20 - 20) =      8.80433  eV     1   --> A              
     e( 21 - 21) =      9.72145  eV     1   --> A              
     e( 22 - 22) =     10.65784  eV     1   --> A              
     e( 23 - 23) =     10.82322  eV     1   --> A              
     e( 24 - 24) =     11.38484  eV     1   --> A              
     e( 25 - 25) =     11.62616  eV     1   --> A              

 **************************************************************************

 **************************************************************************

                    xk=(   0.44259,   0.25575,   0.00000  )

     Band symmetry, C_1 (1)     point group:

     e(  1 -  1) =    -12.95538  eV     1   --> A              
     e(  2 -  2) =    -12.67590  eV     1   --> A              
     e(  3 -  3) =     -6.38720  eV     1   --> A              
     e(  4 -  4) =     -6.03713  eV     1   --> A              
     e(  5 -  5) =     -1.11267  eV     1   --> A              
     e(  6 -  6) =     -0.85598  eV     1   --> A              
     e(  7 -  7) =      0.06050  eV     1   --> A              
     e(  8 -  8) =      0.19261  eV     1   --> A              
     e(  9 -  9) =      0.53774  eV     1   --> A              
     e( 10 - 10) =      0.68256  eV     1   --> A              
     e( 11 - 11) =      1.73898  eV     1   --> A              
     e( 12 - 12) =      2.09214  eV     1   --> A              
     e( 13 - 13) =      2.41449  eV     1   --> A              
     e( 14 - 14) =      2.55306  eV     1   --> A              
     e( 15 - 15) =      2.99028  eV     1   --> A              
     e( 16 - 16) =      3.51674  eV     1   --> A              
     e( 17 - 17) =      5.29196  eV     1   --> A              
     e( 18 - 18) =      5.73143  eV     1   --> A              
     e( 19 - 19) =      8.33243  eV     1   --> A              
     e( 20 - 20) =      8.62399  eV     1   --> A              
     e( 21 - 21) =      9.73708  eV     1   --> A              
     e( 22 - 22) =     10.60624  eV     1   --> A              
     e( 23 - 23) =     10.87433  eV     1   --> A              
     e( 24 - 24) =     11.38380  eV     1   --> A              
     e( 25 - 25) =     11.63469  eV     1   --> A              

 **************************************************************************

 **************************************************************************

                    xk=(   0.46183,   0.26687,   0.00000  )

     Band symmetry, C_1 (1)     point group:

     e(  1 -  1) =    -12.93789  eV     1   --> A              
     e(  2 -  2) =    -12.65833  eV     1   --> A              
     e(  3 -  3) =     -6.30792  eV     1   --> A              
     e(  4 -  4) =     -5.95651  eV     1   --> A              
     e(  5 -  5) =     -1.10601  eV     1   --> A              
     e(  6 -  6) =     -0.85107  eV     1   --> A              
     e(  7 -  7) =     -0.04053  eV     1   --> A              
     e(  8 -  8) =      0.11307  eV     1   --> A              
     e(  9 -  9) =      0.46260  eV     1   --> A              
     e( 10 - 10) =      0.62590  eV     1   --> A              
     e( 11 - 11) =      1.82183  eV     1   --> A              
     e( 12 - 12) =      1.97133  eV     1   --> A              
     e( 13 - 13) =      2.30891  eV     1   --> A              
     e( 14 - 14) =      2.48807  eV     1   --> A              
     e( 15 - 15) =      3.07206  eV     1   --> A              
     e( 16 - 16) =      3.53943  eV     1   --> A              
     e( 17 - 17) =      5.31041  eV     1   --> A              
     e( 18 - 18) =      5.74314  eV     1   --> A              
     e( 19 - 19) =      8.17721  eV     1   --> A              
     e( 20 - 20) =      8.45872  eV     1   --> A              
     e( 21 - 21) =      9.77113  eV     1   --> A              
     e( 22 - 22) =     10.56815  eV     1   --> A              
     e( 23 - 23) =     10.90587  eV     1   --> A              
     e( 24 - 24) =     11.29021  eV     1   --> A              
     e( 25 - 25) =     11.73757  eV     1   --> A              

 **************************************************************************

 **************************************************************************

                    xk=(   0.48107,   0.27799,   0.00000  )

     Band symmetry, C_1 (1)     point group:

     e(  1 -  1) =    -12.92330  eV     1   --> A              
     e(  2 -  2) =    -12.64368  eV     1   --> A              
     e(  3 -  3) =     -6.24026  eV     1   --> A              
     e(  4 -  4) =     -5.88766  eV     1   --> A              
     e(  5 -  5) =     -1.08627  eV     1   --> A              
     e(  6 -  6) =     -0.83271  eV     1   --> A              
     e(  7 -  7) =     -0.14013  eV     1   --> A              
     e(  8 -  8) =      0.03912  eV     1   --> A              
     e(  9 -  9) =      0.40994  eV     1   --> A              
     e( 10 - 10) =      0.59482  eV     1   --> A              
     e( 11 - 11) =      1.72797  eV     1   --> A              
     e( 12 - 12) =      1.97426  eV     1   --> A              
     e( 13 - 13) =      2.16946  eV     1   --> A              
     e( 14 - 14) =      2.50486  eV     1   --> A              
     e( 15 - 15) =      3.13622  eV     1   --> A              
     e( 16 - 16) =      3.56519  eV     1   --> A              
     e( 17 - 17) =      5.33628  eV     1   --> A              
     e( 18 - 18) =      5.75343  eV     1   --> A              
     e( 19 - 19) =      8.03896  eV     1   --> A              
     e( 20 - 20) =      8.31084  eV     1   --> A              
     e( 21 - 21) =      9.81880  eV     1   --> A              
     e( 22 - 22) =     10.54119  eV     1   --> A              
     e( 23 - 23) =     10.93198  eV     1   --> A              
     e( 24 - 24) =     11.19039  eV     1   --> A              
     e( 25 - 25) =     11.77134  eV     1   --> A              

 **************************************************************************

 **************************************************************************

                    xk=(   0.50032,   0.28911,   0.00000  )

     Band symmetry, C_1 (1)     point group:

     e(  1 -  1) =    -12.91163  eV     1   --> A              
     e(  2 -  2) =    -12.63196  eV     1   --> A              
     e(  3 -  3) =     -6.18518  eV     1   --> A              
     e(  4 -  4) =     -5.83157  eV     1   --> A              
     e(  5 -  5) =     -1.05462  eV     1   --> A              
     e(  6 -  6) =     -0.80225  eV     1   --> A              
     e(  7 -  7) =     -0.23742  eV     1   --> A              
     e(  8 -  8) =     -0.03451  eV     1   --> A              
     e(  9 -  9) =      0.38684  eV     1   --> A              
     e( 10 - 10) =      0.58951  eV     1   --> A              
     e( 11 - 11) =      1.56855  eV     1   --> A              
     e( 12 - 12) =      1.91122  eV     1   --> A              
     e( 13 - 13) =      2.14920  eV     1   --> A              
     e( 14 - 14) =      2.53022  eV     1   --> A              
     e( 15 - 15) =      3.18205  eV     1   --> A              
     e( 16 - 16) =      3.59227  eV     1   --> A              
     e( 17 - 17) =      5.36612  eV     1   --> A              
     e( 18 - 18) =      5.76578  eV     1   --> A              
     e( 19 - 19) =      7.92101  eV     1   --> A              
     e( 20 - 20) =      8.18297  eV     1   --> A              
     e( 21 - 21) =      9.87247  eV     1   --> A              
     e( 22 - 22) =     10.52157  eV     1   --> A              
     e( 23 - 23) =     10.96004  eV     1   --> A              
     e( 24 - 24) =     11.10813  eV     1   --> A              
     e( 25 - 25) =     11.72794  eV     1   --> A              

 **************************************************************************

 **************************************************************************

                    xk=(   0.51956,   0.30023,   0.00000  )

     Band symmetry, C_1 (1)     point group:

     e(  1 -  1) =    -12.90282  eV     1   --> A              
     e(  2 -  2) =    -12.62311  eV     1   --> A              
     e(  3 -  3) =     -6.14313  eV     1   --> A              
     e(  4 -  4) =     -5.78873  eV     1   --> A              
     e(  5 -  5) =     -1.01322  eV     1   --> A              
     e(  6 -  6) =     -0.76203  eV     1   --> A              
     e(  7 -  7) =     -0.33013  eV     1   --> A              
     e(  8 -  8) =     -0.10920  eV     1   --> A              
     e(  9 -  9) =      0.39514  eV     1   --> A              
     e( 10 - 10) =      0.60727  eV     1   --> A              
     e( 11 - 11) =      1.41315  eV     1   --> A              
     e( 12 - 12) =      1.77580  eV     1   --> A              
     e( 13 - 13) =      2.20193  eV     1   --> A              
     e( 14 - 14) =      2.55248  eV     1   --> A              
     e( 15 - 15) =      3.21228  eV     1   --> A              
     e( 16 - 16) =      3.61747  eV     1   --> A              
     e( 17 - 17) =      5.39485  eV     1   --> A              
     e( 18 - 18) =      5.78224  eV     1   --> A              
     e( 19 - 19) =      7.82700  eV     1   --> A              
     e( 20 - 20) =      8.07816  eV     1   --> A              
     e( 21 - 21) =      9.92237  eV     1   --> A              
     e( 22 - 22) =     10.50557  eV     1   --> A              
     e( 23 - 23) =     10.98763  eV     1   --> A              
     e( 24 - 24) =     11.06006  eV     1   --> A              
     e( 25 - 25) =     11.67310  eV     1   --> A              

 **************************************************************************

 **************************************************************************

                    xk=(   0.53880,   0.31135,   0.00000  )

     Band symmetry, C_1 (1)     point group:

     e(  1 -  1) =    -12.89676  eV     1   --> A              
     e(  2 -  2) =    -12.61702  eV     1   --> A              
     e(  3 -  3) =     -6.11406  eV     1   --> A              
     e(  4 -  4) =     -5.75911  eV     1   --> A              
     e(  5 -  5) =     -0.96660  eV     1   --> A              
     e(  6 -  6) =     -0.71673  eV     1   --> A              
     e(  7 -  7) =     -0.41356  eV     1   --> A              
     e(  8 -  8) =     -0.18038  eV     1   --> A              
     e(  9 -  9) =      0.42852  eV     1   --> A              
     e( 10 - 10) =      0.64096  eV     1   --> A              
     e( 11 - 11) =      1.27588  eV     1   --> A              
     e( 12 - 12) =      1.65038  eV     1   --> A              
     e( 13 - 13) =      2.24719  eV     1   --> A              
     e( 14 - 14) =      2.56888  eV     1   --> A              
     e( 15 - 15) =      3.23080  eV     1   --> A              
     e( 16 - 16) =      3.63738  eV     1   --> A              
     e( 17 - 17) =      5.41776  eV     1   --> A              
     e( 18 - 18) =      5.80128  eV     1   --> A              
     e( 19 - 19) =      7.76012  eV     1   --> A              
     e( 20 - 20) =      7.99984  eV     1   --> A              
     e( 21 - 21) =      9.95884  eV     1   --> A              
     e( 22 - 22) =     10.49168  eV     1   --> A              
     e( 23 - 23) =     10.99358  eV     1   --> A              
     e( 24 - 24) =     11.07110  eV     1   --> A              
     e( 25 - 25) =     11.61971  eV     1   --> A              

 **************************************************************************

 **************************************************************************

                    xk=(   0.55805,   0.32247,   0.00000  )

     Band symmetry, C_1 (1)     point group:

     e(  1 -  1) =    -12.89328  eV     1   --> A              
     e(  2 -  2) =    -12.61353  eV     1   --> A              
     e(  3 -  3) =     -6.09739  eV     1   --> A              
     e(  4 -  4) =     -5.74212  eV     1   --> A              
     e(  5 -  5) =     -0.92469  eV     1   --> A              
     e(  6 -  6) =     -0.67627  eV     1   --> A              
     e(  7 -  7) =     -0.47760  eV     1   --> A              
     e(  8 -  8) =     -0.23692  eV     1   --> A              
     e(  9 -  9) =      0.47059  eV     1   --> A              
     e( 10 - 10) =      0.67661  eV     1   --> A              
     e( 11 - 11) =      1.17317  eV     1   --> A              
     e( 12 - 12) =      1.55902  eV     1   --> A              
     e( 13 - 13) =      2.27404  eV     1   --> A              
     e( 14 - 14) =      2.57865  eV     1   --> A              
     e( 15 - 15) =      3.24078  eV     1   --> A              
     e( 16 - 16) =      3.64972  eV     1   --> A              
     e( 17 - 17) =      5.43217  eV     1   --> A              
     e( 18 - 18) =      5.81749  eV     1   --> A              
     e( 19 - 19) =      7.72170  eV     1   --> A              
     e( 20 - 20) =      7.95152  eV     1   --> A              
     e( 21 - 21) =      9.97691  eV     1   --> A              
     e( 22 - 22) =     10.48155  eV     1   --> A              
     e( 23 - 23) =     10.99448  eV     1   --> A              
     e( 24 - 24) =     11.11064  eV     1   --> A              
     e( 25 - 25) =     11.57133  eV     1   --> A              

 **************************************************************************

 **************************************************************************

                    xk=(   0.57729,   0.33359,   0.00000  )

     Band symmetry, C_1 (1)     point group:

     e(  1 -  1) =    -12.89217  eV     1   --> A              
     e(  2 -  2) =    -12.61241  eV     1   --> A              
     e(  3 -  3) =     -6.09210  eV     1   --> A              
     e(  4 -  4) =     -5.73672  eV     1   --> A              
     e(  5 -  5) =     -0.90607  eV     1   --> A              
     e(  6 -  6) =     -0.65847  eV     1   --> A              
     e(  7 -  7) =     -0.50352  eV     1   --> A              
     e(  8 -  8) =     -0.26013  eV     1   --> A              
     e(  9 -  9) =      0.49197  eV     1   --> A              
     e( 10 - 10) =      0.69318  eV     1   --> A              
     e( 11 - 11) =      1.13226  eV     1   --> A              
     e( 12 - 12) =      1.52394  eV     1   --> A              
     e( 13 - 13) =      2.28245  eV     1   --> A              
     e( 14 - 14) =      2.58178  eV     1   --> A              
     e( 15 - 15) =      3.24397  eV     1   --> A              
     e( 16 - 16) =      3.65376  eV     1   --> A              
     e( 17 - 17) =      5.43710  eV     1   --> A              
     e( 18 - 18) =      5.82413  eV     1   --> A              
     e( 19 - 19) =      7.70983  eV     1   --> A              
     e( 20 - 20) =      7.93545  eV     1   --> A              
     e( 21 - 21) =      9.98051  eV     1   --> A              
     e( 22 - 22) =     10.47785  eV     1   --> A              
     e( 23 - 23) =     10.99820  eV     1   --> A              
     e( 24 - 24) =     11.13186  eV     1   --> A              
     e( 25 - 25) =     11.54731  eV     1   --> A              

 **************************************************************************

 **************************************************************************

                    xk=(   0.57729,   0.32247,   0.00000  )

     Band symmetry, C_1 (1)     point group:

     e(  1 -  1) =    -12.89244  eV     1   --> A              
     e(  2 -  2) =    -12.61268  eV     1   --> A              
     e(  3 -  3) =     -6.09336  eV     1   --> A              
     e(  4 -  4) =     -5.73801  eV     1   --> A              
     e(  5 -  5) =     -0.91131  eV     1   --> A              
     e(  6 -  6) =     -0.66342  eV     1   --> A              
     e(  7 -  7) =     -0.49655  eV     1   --> A              
     e(  8 -  8) =     -0.25383  eV     1   --> A              
     e(  9 -  9) =      0.48554  eV     1   --> A              
     e( 10 - 10) =      0.68828  eV     1   --> A              
     e( 11 - 11) =      1.14340  eV     1   --> A              
     e( 12 - 12) =      1.53335  eV     1   --> A              
     e( 13 - 13) =      2.28055  eV     1   --> A              
     e( 14 - 14) =      2.58106  eV     1   --> A              
     e( 15 - 15) =      3.24316  eV     1   --> A              
     e( 16 - 16) =      3.65280  eV     1   --> A              
     e( 17 - 17) =      5.43581  eV     1   --> A              
     e( 18 - 18) =      5.82224  eV     1   --> A              
     e( 19 - 19) =      7.71249  eV     1   --> A              
     e( 20 - 20) =      7.93927  eV     1   --> A              
     e( 21 - 21) =      9.98054  eV     1   --> A              
     e( 22 - 22) =     10.47875  eV     1   --> A              
     e( 23 - 23) =     10.99606  eV     1   --> A              
     e( 24 - 24) =     11.12555  eV     1   --> A              
     e( 25 - 25) =     11.55480  eV     1   --> A              

 **************************************************************************

 **************************************************************************

                    xk=(   0.57729,   0.31135,   0.00000  )

     Band symmetry, C_1 (1)     point group:

     e(  1 -  1) =    -12.89320  eV     1   --> A              
     e(  2 -  2) =    -12.61345  eV     1   --> A              
     e(  3 -  3) =     -6.09694  eV     1   --> A              
     e(  4 -  4) =     -5.74165  eV     1   --> A              
     e(  5 -  5) =     -0.92664  eV     1   --> A              
     e(  6 -  6) =     -0.67794  eV     1   --> A              
     e(  7 -  7) =     -0.47607  eV     1   --> A              
     e(  8 -  8) =     -0.23532  eV     1   --> A              
     e(  9 -  9) =      0.46632  eV     1   --> A              
     e( 10 - 10) =      0.67309  eV     1   --> A              
     e( 11 - 11) =      1.17677  eV     1   --> A              
     e( 12 - 12) =      1.56186  eV     1   --> A              
     e( 13 - 13) =      2.27519  eV     1   --> A              
     e( 14 - 14) =      2.57904  eV     1   --> A              
     e( 15 - 15) =      3.24078  eV     1   --> A              
     e( 16 - 16) =      3.65009  eV     1   --> A              
     e( 17 - 17) =      5.43201  eV     1   --> A              
     e( 18 - 18) =      5.81653  eV     1   --> A              
     e( 19 - 19) =      7.71985  eV     1   --> A              
     e( 20 - 20) =      7.95001  eV     1   --> A              
     e( 21 - 21) =      9.98186  eV     1   --> A              
     e( 22 - 22) =     10.48156  eV     1   --> A              
     e( 23 - 23) =     10.98721  eV     1   --> A              
     e( 24 - 24) =     11.10877  eV     1   --> A              
     e( 25 - 25) =     11.57564  eV     1   --> A              

 **************************************************************************

 **************************************************************************

                    xk=(   0.57729,   0.30023,   0.00000  )

     Band symmetry, C_1 (1)     point group:

     e(  1 -  1) =    -12.89442  eV     1   --> A              
     e(  2 -  2) =    -12.61468  eV     1   --> A              
     e(  3 -  3) =     -6.10262  eV     1   --> A              
     e(  4 -  4) =     -5.74744  eV     1   --> A              
     e(  5 -  5) =     -0.95007  eV     1   --> A              
     e(  6 -  6) =     -0.70025  eV     1   --> A              
     e(  7 -  7) =     -0.44410  eV     1   --> A              
     e(  8 -  8) =     -0.20661  eV     1   --> A              
     e(  9 -  9) =      0.43681  eV     1   --> A              
     e( 10 - 10) =      0.64839  eV     1   --> A              
     e( 11 - 11) =      1.22987  eV     1   --> A              
     e( 12 - 12) =      1.60816  eV     1   --> A              
     e( 13 - 13) =      2.26689  eV     1   --> A              
     e( 14 - 14) =      2.57599  eV     1   --> A              
     e( 15 - 15) =      3.23680  eV     1   --> A              
     e( 16 - 16) =      3.64587  eV     1   --> A              
     e( 17 - 17) =      5.42568  eV     1   --> A              
     e( 18 - 18) =      5.80706  eV     1   --> A              
     e( 19 - 19) =      7.73116  eV     1   --> A              
     e( 20 - 20) =      7.96640  eV     1   --> A              
     e( 21 - 21) =      9.98645  eV     1   --> A              
     e( 22 - 22) =     10.48612  eV     1   --> A              
     e( 23 - 23) =     10.96838  eV     1   --> A              
     e( 24 - 24) =     11.08731  eV     1   --> A              
     e( 25 - 25) =     11.60475  eV     1   --> A              

 **************************************************************************

 **************************************************************************

                    xk=(   0.57729,   0.28911,   0.00000  )

     Band symmetry, C_1 (1)     point group:

     e(  1 -  1) =    -12.89606  eV     1   --> A              
     e(  2 -  2) =    -12.61632  eV     1   --> A              
     e(  3 -  3) =     -6.11020  eV     1   --> A              
     e(  4 -  4) =     -5.75516  eV     1   --> A              
     e(  5 -  5) =     -0.97917  eV     1   --> A              
     e(  6 -  6) =     -0.72813  eV     1   --> A              
     e(  7 -  7) =     -0.40321  eV     1   --> A              
     e(  8 -  8) =     -0.17052  eV     1   --> A              
     e(  9 -  9) =      0.40073  eV     1   --> A              
     e( 10 - 10) =      0.61594  eV     1   --> A              
     e( 11 - 11) =      1.29912  eV     1   --> A              
     e( 12 - 12) =      1.66986  eV     1   --> A              
     e( 13 - 13) =      2.25620  eV     1   --> A              
     e( 14 - 14) =      2.57224  eV     1   --> A              
     e( 15 - 15) =      3.23121  eV     1   --> A              
     e( 16 - 16) =      3.64037  eV     1   --> A              
     e( 17 - 17) =      5.41683  eV     1   --> A              
     e( 18 - 18) =      5.79405  eV     1   --> A              
     e( 19 - 19) =      7.74563  eV     1   --> A              
     e( 20 - 20) =      7.98678  eV     1   --> A              
     e( 21 - 21) =      9.99622  eV     1   --> A              
     e( 22 - 22) =     10.49208  eV     1   --> A              
     e( 23 - 23) =     10.93781  eV     1   --> A              
     e( 24 - 24) =     11.06707  eV     1   --> A              
     e( 25 - 25) =     11.63500  eV     1   --> A              

 **************************************************************************

 **************************************************************************

                    xk=(   0.57729,   0.27799,   0.00000  )

     Band symmetry, C_1 (1)     point group:

     e(  1 -  1) =    -12.89808  eV     1   --> A              
     e(  2 -  2) =    -12.61835  eV     1   --> A              
     e(  3 -  3) =     -6.11944  eV     1   --> A              
     e(  4 -  4) =     -5.76457  eV     1   --> A              
     e(  5 -  5) =     -1.01186  eV     1   --> A              
     e(  6 -  6) =     -0.75962  eV     1   --> A              
     e(  7 -  7) =     -0.35556  eV     1   --> A              
     e(  8 -  8) =     -0.12991  eV     1   --> A              
     e(  9 -  9) =      0.36184  eV     1   --> A              
     e( 10 - 10) =      0.57781  eV     1   --> A              
     e( 11 - 11) =      1.38111  eV     1   --> A              
     e( 12 - 12) =      1.74417  eV     1   --> A              
     e( 13 - 13) =      2.24375  eV     1   --> A              
     e( 14 - 14) =      2.56822  eV     1   --> A              
     e( 15 - 15) =      3.22402  eV     1   --> A              
     e( 16 - 16) =      3.63389  eV     1   --> A              
     e( 17 - 17) =      5.40553  eV     1   --> A              
     e( 18 - 18) =      5.77787  eV     1   --> A              
     e( 19 - 19) =      7.76241  eV     1   --> A              
     e( 20 - 20) =      8.00935  eV     1   --> A              
     e( 21 - 21) =     10.01285  eV     1   --> A              
     e( 22 - 22) =     10.49872  eV     1   --> A              
     e( 23 - 23) =     10.89763  eV     1   --> A              
     e( 24 - 24) =     11.05032  eV     1   --> A              
     e( 25 - 25) =     11.66029  eV     1   --> A              

 **************************************************************************

 **************************************************************************

                    xk=(   0.57729,   0.26687,   0.00000  )

     Band symmetry, C_1 (1)     point group:

     e(  1 -  1) =    -12.90044  eV     1   --> A              
     e(  2 -  2) =    -12.62072  eV     1   --> A              
     e(  3 -  3) =     -6.13015  eV     1   --> A              
     e(  4 -  4) =     -5.77547  eV     1   --> A              
     e(  5 -  5) =     -1.04661  eV     1   --> A              
     e(  6 -  6) =     -0.79328  eV     1   --> A              
     e(  7 -  7) =     -0.30288  eV     1   --> A              
     e(  8 -  8) =     -0.08794  eV     1   --> A              
     e(  9 -  9) =      0.32391  eV     1   --> A              
     e( 10 - 10) =      0.53593  eV     1   --> A              
     e( 11 - 11) =      1.47303  eV     1   --> A              
     e( 12 - 12) =      1.82811  eV     1   --> A              
     e( 13 - 13) =      2.23040  eV     1   --> A              
     e( 14 - 14) =      2.56453  eV     1   --> A              
     e( 15 - 15) =      3.21526  eV     1   --> A              
     e( 16 - 16) =      3.62668  eV     1   --> A              
     e( 17 - 17) =      5.39187  eV     1   --> A              
     e( 18 - 18) =      5.75897  eV     1   --> A              
     e( 19 - 19) =      7.78052  eV     1   --> A              
     e( 20 - 20) =      8.03234  eV     1   --> A              
     e( 21 - 21) =     10.03771  eV     1   --> A              
     e( 22 - 22) =     10.50463  eV     1   --> A              
     e( 23 - 23) =     10.85267  eV     1   --> A              
     e( 24 - 24) =     11.03674  eV     1   --> A              
     e( 25 - 25) =     11.67747  eV     1   --> A              

 **************************************************************************

 **************************************************************************

                    xk=(   0.57729,   0.25575,   0.00000  )

     Band symmetry, C_1 (1)     point group:

     e(  1 -  1) =    -12.90310  eV     1   --> A              
     e(  2 -  2) =    -12.62339  eV     1   --> A              
     e(  3 -  3) =     -6.14209  eV     1   --> A              
     e(  4 -  4) =     -5.78762  eV     1   --> A              
     e(  5 -  5) =     -1.08237  eV     1   --> A              
     e(  6 -  6) =     -0.82803  eV     1   --> A              
     e(  7 -  7) =     -0.24644  eV     1   --> A              
     e(  8 -  8) =     -0.04875  eV     1   --> A              
     e(  9 -  9) =      0.29152  eV     1   --> A              
     e( 10 - 10) =      0.49186  eV     1   --> A              
     e( 11 - 11) =      1.57257  eV     1   --> A              
     e( 12 - 12) =      1.91823  eV     1   --> A              
     e( 13 - 13) =      2.21767  eV     1   --> A              
     e( 14 - 14) =      2.56203  eV     1   --> A              
     e( 15 - 15) =      3.20504  eV     1   --> A              
     e( 16 - 16) =      3.61901  eV     1   --> A              
     e( 17 - 17) =      5.37604  eV     1   --> A              
     e( 18 - 18) =      5.73784  eV     1   --> A              
     e( 19 - 19) =      7.79880  eV     1   --> A              
     e( 20 - 20) =      8.05425  eV     1   --> A              
     e( 21 - 21) =     10.07168  eV     1   --> A              
     e( 22 - 22) =     10.50723  eV     1   --> A              
     e( 23 - 23) =     10.80831  eV     1   --> A              
     e( 24 - 24) =     11.02612  eV     1   --> A              
     e( 25 - 25) =     11.68617  eV     1   --> A              

 **************************************************************************

 **************************************************************************

                    xk=(   0.57729,   0.24463,   0.00000  )

     Band symmetry, C_1 (1)     point group:

     e(  1 -  1) =    -12.90601  eV     1   --> A              
     e(  2 -  2) =    -12.62631  eV     1   --> A              
     e(  3 -  3) =     -6.15506  eV     1   --> A              
     e(  4 -  4) =     -5.80082  eV     1   --> A              
     e(  5 -  5) =     -1.11841  eV     1   --> A              
     e(  6 -  6) =     -0.86316  eV     1   --> A              
     e(  7 -  7) =     -0.18729  eV     1   --> A              
     e(  8 -  8) =     -0.01859  eV     1   --> A              
     e(  9 -  9) =      0.27121  eV     1   --> A              
     e( 10 - 10) =      0.44682  eV     1   --> A              
     e( 11 - 11) =      1.67773  eV     1   --> A              
     e( 12 - 12) =      2.00853  eV     1   --> A              
     e( 13 - 13) =      2.20954  eV     1   --> A              
     e( 14 - 14) =      2.56209  eV     1   --> A              
     e( 15 - 15) =      3.19351  eV     1   --> A              
     e( 16 - 16) =      3.61114  eV     1   --> A              
     e( 17 - 17) =      5.35823  eV     1   --> A              
     e( 18 - 18) =      5.71496  eV     1   --> A              
     e( 19 - 19) =      7.81593  eV     1   --> A              
     e( 20 - 20) =      8.07404  eV     1   --> A              
     e( 21 - 21) =     10.11503  eV     1   --> A              
     e( 22 - 22) =     10.50229  eV     1   --> A              
     e( 23 - 23) =     10.77025  eV     1   --> A              
     e( 24 - 24) =     11.01922  eV     1   --> A              
     e( 25 - 25) =     11.68730  eV     1   --> A              

 **************************************************************************

 **************************************************************************

                    xk=(   0.57729,   0.23351,   0.00000  )

     Band symmetry, C_1 (1)     point group:

     e(  1 -  1) =    -12.90914  eV     1   --> A              
     e(  2 -  2) =    -12.62945  eV     1   --> A              
     e(  3 -  3) =     -6.16885  eV     1   --> A              
     e(  4 -  4) =     -5.81485  eV     1   --> A              
     e(  5 -  5) =     -1.15423  eV     1   --> A              
     e(  6 -  6) =     -0.89815  eV     1   --> A              
     e(  7 -  7) =     -0.12663  eV     1   --> A              
     e(  8 -  8) =     -0.00497  eV     1   --> A              
     e(  9 -  9) =      0.27092  eV     1   --> A              
     e( 10 - 10) =      0.40178  eV     1   --> A              
     e( 11 - 11) =      1.78640  eV     1   --> A              
     e( 12 - 12) =      2.08213  eV     1   --> A              
     e( 13 - 13) =      2.22047  eV     1   --> A              
     e( 14 - 14) =      2.56713  eV     1   --> A              
     e( 15 - 15) =      3.18090  eV     1   --> A              
     e( 16 - 16) =      3.60330  eV     1   --> A              
     e( 17 - 17) =      5.33871  eV     1   --> A              
     e( 18 - 18) =      5.69078  eV     1   --> A              
     e( 19 - 19) =      7.83044  eV     1   --> A              
     e( 20 - 20) =      8.09115  eV     1   --> A              
     e( 21 - 21) =     10.16714  eV     1   --> A              
     e( 22 - 22) =     10.48485  eV     1   --> A              
     e( 23 - 23) =     10.74400  eV     1   --> A              
     e( 24 - 24) =     11.01765  eV     1   --> A              
     e( 25 - 25) =     11.68223  eV     1   --> A              

 **************************************************************************

 **************************************************************************

                    xk=(   0.57729,   0.22239,   0.00000  )

     Band symmetry, C_1 (1)     point group:

     e(  1 -  1) =    -12.91244  eV     1   --> A              
     e(  2 -  2) =    -12.63277  eV     1   --> A              
[...]
     e( 11 - 11) =      1.53305  eV     1   --> A''            
     e( 12 - 12) =      2.78755  eV     1   --> A'             
     e( 13 - 13) =      3.71604  eV     1   --> A'             
     e( 14 - 14) =      3.98043  eV     1   --> A'             
     e( 15 - 15) =      4.51900  eV     1   --> A'             
     e( 16 - 16) =      5.12671  eV     1   --> A''            
     e( 17 - 17) =      5.45877  eV     1   --> A''            
     e( 18 - 18) =      5.64806  eV     1   --> A'             
     e( 19 - 19) =      8.10973  eV     1   --> A'             
     e( 20 - 20) =      9.56739  eV     1   --> A'             
     e( 21 - 21) =     11.10985  eV     1   --> A'             
     e( 22 - 22) =     11.45264  eV     1   --> A'             
     e( 23 - 23) =     12.06018  eV     1   --> A'             
     e( 24 - 24) =     12.51211  eV     1   --> A'             
     e( 25 - 25) =     12.86573  eV     1   --> A'             

 **************************************************************************

 **************************************************************************

                    xk=(   0.17319,   0.00000,   0.00000  )

     Band symmetry, C_s (m)     point group:

     e(  1 -  1) =    -13.40322  eV     1   --> A'             
     e(  2 -  2) =    -13.12560  eV     1   --> A'             
     e(  3 -  3) =     -7.92992  eV     1   --> A'             
     e(  4 -  4) =     -7.59637  eV     1   --> A'             
     e(  5 -  5) =     -0.46543  eV     1   --> A'             
     e(  6 -  6) =     -0.00742  eV     1   --> A'             
     e(  7 -  7) =      0.61645  eV     1   --> A'             
     e(  8 -  8) =      1.07023  eV     1   --> A'             
     e(  9 -  9) =      1.24994  eV     1   --> A'             
     e( 10 - 10) =      1.28258  eV     1   --> A''            
     e( 11 - 11) =      1.55687  eV     1   --> A''            
     e( 12 - 12) =      2.78691  eV     1   --> A'             
     e( 13 - 13) =      3.87721  eV     1   --> A'             
     e( 14 - 14) =      4.17883  eV     1   --> A'             
     e( 15 - 15) =      4.57524  eV     1   --> A'             
     e( 16 - 16) =      5.19937  eV     1   --> A''            
     e( 17 - 17) =      5.53198  eV     1   --> A''            
     e( 18 - 18) =      5.64616  eV     1   --> A'             
     e( 19 - 19) =      7.95599  eV     1   --> A'             
     e( 20 - 20) =      9.48299  eV     1   --> A'             
     e( 21 - 21) =     11.26196  eV     1   --> A'             
     e( 22 - 22) =     11.65377  eV     1   --> A'             
     e( 23 - 23) =     12.19309  eV     1   --> A'             
     e( 24 - 24) =     12.68268  eV     1   --> A'             
     e( 25 - 25) =     12.95771  eV     1   --> A'             

 **************************************************************************

 **************************************************************************

                    xk=(   0.15394,   0.00000,   0.00000  )

     Band symmetry, C_s (m)     point group:

     e(  1 -  1) =    -13.42427  eV     1   --> A'             
     e(  2 -  2) =    -13.14673  eV     1   --> A'             
     e(  3 -  3) =     -7.98772  eV     1   --> A'             
     e(  4 -  4) =     -7.65455  eV     1   --> A'             
     e(  5 -  5) =     -0.52042  eV     1   --> A'             
     e(  6 -  6) =      0.01751  eV     1   --> A'             
     e(  7 -  7) =      0.74824  eV     1   --> A'             
     e(  8 -  8) =      1.02939  eV     1   --> A'             
     e(  9 -  9) =      1.27953  eV     1   --> A'             
     e( 10 - 10) =      1.30485  eV     1   --> A''            
     e( 11 - 11) =      1.57912  eV     1   --> A''            
     e( 12 - 12) =      2.77349  eV     1   --> A'             
     e( 13 - 13) =      3.93559  eV     1   --> A'             
     e( 14 - 14) =      4.38067  eV     1   --> A'             
     e( 15 - 15) =      4.73091  eV     1   --> A'             
     e( 16 - 16) =      5.26882  eV     1   --> A''            
     e( 17 - 17) =      5.60197  eV     1   --> A''            
     e( 18 - 18) =      5.64157  eV     1   --> A'             
     e( 19 - 19) =      7.80995  eV     1   --> A'             
     e( 20 - 20) =      9.39461  eV     1   --> A'             
     e( 21 - 21) =     11.37895  eV     1   --> A'             
     e( 22 - 22) =     11.85295  eV     1   --> A'             
     e( 23 - 23) =     12.33536  eV     1   --> A'             
     e( 24 - 24) =     12.79337  eV     1   --> A'             
     e( 25 - 25) =     13.02500  eV     1   --> A'             

 **************************************************************************

 **************************************************************************

                    xk=(   0.13470,   0.00000,   0.00000  )

     Band symmetry, C_s (m)     point group:

     e(  1 -  1) =    -13.44330  eV     1   --> A'             
     e(  2 -  2) =    -13.16584  eV     1   --> A'             
     e(  3 -  3) =     -8.03925  eV     1   --> A'             
     e(  4 -  4) =     -7.70642  eV     1   --> A'             
     e(  5 -  5) =     -0.57266  eV     1   --> A'             
     e(  6 -  6) =      0.03322  eV     1   --> A'             
     e(  7 -  7) =      0.87302  eV     1   --> A'             
     e(  8 -  8) =      0.99321  eV     1   --> A'             
     e(  9 -  9) =      1.32527  eV     1   --> A''            
     e( 10 - 10) =      1.32595  eV     1   --> A'             
     e( 11 - 11) =      1.59951  eV     1   --> A''            
     e( 12 - 12) =      2.75269  eV     1   --> A'             
     e( 13 - 13) =      3.91489  eV     1   --> A'             
     e( 14 - 14) =      4.59954  eV     1   --> A'             
     e( 15 - 15) =      4.93684  eV     1   --> A'             
     e( 16 - 16) =      5.33392  eV     1   --> A''            
     e( 17 - 17) =      5.63464  eV     1   --> A'             
     e( 18 - 18) =      5.66758  eV     1   --> A''            
     e( 19 - 19) =      7.67400  eV     1   --> A'             
     e( 20 - 20) =      9.30755  eV     1   --> A'             
     e( 21 - 21) =     11.46392  eV     1   --> A'             
     e( 22 - 22) =     12.04028  eV     1   --> A'             
     e( 23 - 23) =     12.47163  eV     1   --> A'             
     e( 24 - 24) =     12.79232  eV     1   --> A'             
     e( 25 - 25) =     13.08425  eV     1   --> A'             

 **************************************************************************

 **************************************************************************

                    xk=(   0.11546,   0.00000,   0.00000  )

     Band symmetry, C_s (m)     point group:

     e(  1 -  1) =    -13.46016  eV     1   --> A'             
     e(  2 -  2) =    -13.18276  eV     1   --> A'             
     e(  3 -  3) =     -8.08430  eV     1   --> A'             
     e(  4 -  4) =     -7.75176  eV     1   --> A'             
     e(  5 -  5) =     -0.61986  eV     1   --> A'             
     e(  6 -  6) =      0.04071  eV     1   --> A'             
     e(  7 -  7) =      0.93728  eV     1   --> A'             
     e(  8 -  8) =      1.01433  eV     1   --> A'             
     e(  9 -  9) =      1.34357  eV     1   --> A''            
     e( 10 - 10) =      1.38341  eV     1   --> A'             
     e( 11 - 11) =      1.61779  eV     1   --> A''            
     e( 12 - 12) =      2.72731  eV     1   --> A'             
     e( 13 - 13) =      3.86337  eV     1   --> A'             
     e( 14 - 14) =      4.81854  eV     1   --> A'             
     e( 15 - 15) =      5.15162  eV     1   --> A'             
     e( 16 - 16) =      5.39349  eV     1   --> A''            
     e( 17 - 17) =      5.62589  eV     1   --> A'             
     e( 18 - 18) =      5.72765  eV     1   --> A''            
     e( 19 - 19) =      7.55034  eV     1   --> A'             
     e( 20 - 20) =      9.22566  eV     1   --> A'             
     e( 21 - 21) =     11.52405  eV     1   --> A'             
     e( 22 - 22) =     12.18755  eV     1   --> A'             
     e( 23 - 23) =     12.56862  eV     1   --> A'             
     e( 24 - 24) =     12.74356  eV     1   --> A'             
     e( 25 - 25) =     13.08891  eV     1   --> A'             

 **************************************************************************

 **************************************************************************

                    xk=(   0.09621,   0.00000,   0.00000  )

     Band symmetry, C_s (m)     point group:

     e(  1 -  1) =    -13.47467  eV     1   --> A'             
     e(  2 -  2) =    -13.19733  eV     1   --> A'             
     e(  3 -  3) =     -8.12270  eV     1   --> A'             
     e(  4 -  4) =     -7.79040  eV     1   --> A'             
     e(  5 -  5) =     -0.66083  eV     1   --> A'             
     e(  6 -  6) =      0.04225  eV     1   --> A'             
     e(  7 -  7) =      0.91382  eV     1   --> A'             
     e(  8 -  8) =      1.11756  eV     1   --> A'             
     e(  9 -  9) =      1.35952  eV     1   --> A''            
     e( 10 - 10) =      1.44685  eV     1   --> A'             
     e( 11 - 11) =      1.63371  eV     1   --> A''            
     e( 12 - 12) =      2.69912  eV     1   --> A'             
     e( 13 - 13) =      3.80372  eV     1   --> A'             
     e( 14 - 14) =      5.02431  eV     1   --> A'             
     e( 15 - 15) =      5.35611  eV     1   --> A'             
     e( 16 - 16) =      5.44639  eV     1   --> A''            
     e( 17 - 17) =      5.61605  eV     1   --> A'             
     e( 18 - 18) =      5.78099  eV     1   --> A''            
     e( 19 - 19) =      7.44101  eV     1   --> A'             
     e( 20 - 20) =      9.15185  eV     1   --> A'             
     e( 21 - 21) =     11.56580  eV     1   --> A'             
     e( 22 - 22) =     12.23256  eV     1   --> A'             
     e( 23 - 23) =     12.59144  eV     1   --> A'             
     e( 24 - 24) =     12.74251  eV     1   --> A'             
     e( 25 - 25) =     13.09511  eV     1   --> A'             

 **************************************************************************

 **************************************************************************

                    xk=(   0.07697,   0.00000,   0.00000  )

     Band symmetry, C_s (m)     point group:

     e(  1 -  1) =    -13.48672  eV     1   --> A'             
     e(  2 -  2) =    -13.20942  eV     1   --> A'             
     e(  3 -  3) =     -8.15431  eV     1   --> A'             
     e(  4 -  4) =     -7.82220  eV     1   --> A'             
     e(  5 -  5) =     -0.69492  eV     1   --> A'             
     e(  6 -  6) =      0.04019  eV     1   --> A'             
     e(  7 -  7) =      0.88889  eV     1   --> A'             
     e(  8 -  8) =      1.21323  eV     1   --> A'             
     e(  9 -  9) =      1.37286  eV     1   --> A''            
     e( 10 - 10) =      1.51150  eV     1   --> A'             
     e( 11 - 11) =      1.64704  eV     1   --> A''            
     e( 12 - 12) =      2.66968  eV     1   --> A'             
     e( 13 - 13) =      3.74604  eV     1   --> A'             
     e( 14 - 14) =      5.20757  eV     1   --> A'             
     e( 15 - 15) =      5.49148  eV     1   --> A''            
     e( 16 - 16) =      5.53878  eV     1   --> A'             
     e( 17 - 17) =      5.60658  eV     1   --> A'             
     e( 18 - 18) =      5.82648  eV     1   --> A''            
     e( 19 - 19) =      7.34785  eV     1   --> A'             
     e( 20 - 20) =      9.08840  eV     1   --> A'             
     e( 21 - 21) =     11.59372  eV     1   --> A'             
     e( 22 - 22) =     12.16318  eV     1   --> A'             
     e( 23 - 23) =     12.53860  eV     1   --> A'             
     e( 24 - 24) =     12.81820  eV     1   --> A'             
     e( 25 - 25) =     13.16310  eV     1   -->   ?

 **************************************************************************

 **************************************************************************

                    xk=(   0.05773,   0.00000,   0.00000  )

     Band symmetry, C_s (m)     point group:

     e(  1 -  1) =    -13.49620  eV     1   --> A'             
     e(  2 -  2) =    -13.21894  eV     1   --> A'             
     e(  3 -  3) =     -8.17900  eV     1   --> A'             
     e(  4 -  4) =     -7.84704  eV     1   --> A'             
     e(  5 -  5) =     -0.72174  eV     1   --> A'             
     e(  6 -  6) =      0.03657  eV     1   --> A'             
     e(  7 -  7) =      0.86865  eV     1   --> A'             
     e(  8 -  8) =      1.29170  eV     1   --> A'             
     e(  9 -  9) =      1.38345  eV     1   --> A''            
     e( 10 - 10) =      1.57235  eV     1   --> A'             
     e( 11 - 11) =      1.65761  eV     1   --> A''            
     e( 12 - 12) =      2.64104  eV     1   --> A'             
     e( 13 - 13) =      3.69603  eV     1   --> A'             
     e( 14 - 14) =      5.36049  eV     1   --> A'             
     e( 15 - 15) =      5.52775  eV     1   --> A''            
     e( 16 - 16) =      5.59521  eV     1   --> A'             
     e( 17 - 17) =      5.69439  eV     1   --> A'             
     e( 18 - 18) =      5.86307  eV     1   --> A''            
     e( 19 - 19) =      7.27262  eV     1   --> A'             
     e( 20 - 20) =      9.03712  eV     1   --> A'             
     e( 21 - 21) =     11.61089  eV     1   --> A'             
     e( 22 - 22) =     12.05799  eV     1   --> A'             
     e( 23 - 23) =     12.44396  eV     1   --> A'             
     e( 24 - 24) =     12.93124  eV     1   --> A'             
     e( 25 - 25) =     13.20547  eV     1   --> A''            

 **************************************************************************

 **************************************************************************

                    xk=(   0.03849,   0.00000,   0.00000  )

     Band symmetry, C_s (m)     point group:

     e(  1 -  1) =    -13.50303  eV     1   --> A'             
     e(  2 -  2) =    -13.22579  eV     1   --> A'             
     e(  3 -  3) =     -8.19670  eV     1   --> A'             
     e(  4 -  4) =     -7.86485  eV     1   --> A'             
     e(  5 -  5) =     -0.74104  eV     1   --> A'             
     e(  6 -  6) =      0.03294  eV     1   --> A'             
     e(  7 -  7) =      0.85397  eV     1   --> A'             
     e(  8 -  8) =      1.34940  eV     1   --> A'             
     e(  9 -  9) =      1.39112  eV     1   --> A''            
     e( 10 - 10) =      1.62346  eV     1   --> A'             
     e( 11 - 11) =      1.66527  eV     1   --> A''            
     e( 12 - 12) =      2.61615  eV     1   --> A'             
     e( 13 - 13) =      3.65758  eV     1   --> A'             
     e( 14 - 14) =      5.47600  eV     1   --> A'             
     e( 15 - 15) =      5.55433  eV     1   --> A''            
     e( 16 - 16) =      5.58779  eV     1   --> A'             
     e( 17 - 17) =      5.81068  eV     1   --> A'             
     e( 18 - 18) =      5.88989  eV     1   --> A''            
     e( 19 - 19) =      7.21702  eV     1   --> A'             
     e( 20 - 20) =      8.99942  eV     1   --> A'             
     e( 21 - 21) =     11.61987  eV     1   --> A'             
     e( 22 - 22) =     11.96497  eV     1   --> A'             
     e( 23 - 23) =     12.35756  eV     1   --> A'             
     e( 24 - 24) =     13.03218  eV     1   --> A'             
     e( 25 - 25) =     13.16471  eV     1   --> A''            

 **************************************************************************

 **************************************************************************

                    xk=(   0.01924,   0.00000,   0.00000  )

     Band symmetry, C_s (m)     point group:

     e(  1 -  1) =    -13.50715  eV     1   --> A'             
     e(  2 -  2) =    -13.22994  eV     1   --> A'             
     e(  3 -  3) =     -8.20735  eV     1   --> A'             
     e(  4 -  4) =     -7.87555  eV     1   --> A'             
     e(  5 -  5) =     -0.75268  eV     1   --> A'             
     e(  6 -  6) =      0.03036  eV     1   --> A'             
     e(  7 -  7) =      0.84505  eV     1   --> A'             
     e(  8 -  8) =      1.38443  eV     1   --> A'             
     e(  9 -  9) =      1.39572  eV     1   --> A''            
     e( 10 - 10) =      1.65801  eV     1   --> A'             
     e( 11 - 11) =      1.66987  eV     1   --> A''            
     e( 12 - 12) =      2.59879  eV     1   --> A'             
     e( 13 - 13) =      3.63341  eV     1   --> A'             
     e( 14 - 14) =      5.54812  eV     1   --> A'             
     e( 15 - 15) =      5.57056  eV     1   --> A''            
     e( 16 - 16) =      5.58268  eV     1   --> A'             
     e( 17 - 17) =      5.88371  eV     1   --> A'             
     e( 18 - 18) =      5.90627  eV     1   --> A''            
     e( 19 - 19) =      7.18273  eV     1   --> A'             
     e( 20 - 20) =      8.97635  eV     1   --> A'             
     e( 21 - 21) =     11.62336  eV     1   --> A'             
     e( 22 - 22) =     11.90362  eV     1   --> A'             
     e( 23 - 23) =     12.30047  eV     1   --> A'             
     e( 24 - 24) =     13.09973  eV     1   --> A'             
     e( 25 - 25) =     13.13915  eV     1   --> A''            

 **************************************************************************

 **************************************************************************

                    xk=(   0.00000,   0.00000,   0.00000  )

     Band symmetry, C_s (m)     point group:

     e(  1 -  1) =    -13.50854  eV     1   --> A'             
     e(  2 -  2) =    -13.23133  eV     1   --> A'             
     e(  3 -  3) =     -8.21090  eV     1   --> A'             
     e(  4 -  4) =     -7.87913  eV     1   --> A'             
     e(  5 -  5) =     -0.75657  eV     1   --> A'             
     e(  6 -  6) =      0.02943  eV     1   --> A'             
     e(  7 -  7) =      0.84207  eV     1   --> A'             
     e(  8 -  8) =      1.39614  eV     1   --> A'             
     e(  9 -  9) =      1.39724  eV     1   --> A''            
     e( 10 - 10) =      1.67028  eV     1   --> A'             
     e( 11 - 11) =      1.67139  eV     1   --> A''            
     e( 12 - 12) =      2.59251  eV     1   --> A'             
     e( 13 - 13) =      3.62516  eV     1   --> A'             
     e( 14 - 14) =      5.57288  eV     1   --> A'             
     e( 15 - 15) =      5.57601  eV     1   --> A''            
     e( 16 - 16) =      5.58067  eV     1   --> A'             
     e( 17 - 17) =      5.90862  eV     1   --> A'             
     e( 18 - 18) =      5.91178  eV     1   --> A''            
     e( 19 - 19) =      7.17111  eV     1   --> A'             
     e( 20 - 20) =      8.96859  eV     1   --> A'             
     e( 21 - 21) =     11.62409  eV     1   --> A'             
     e( 22 - 22) =     11.88238  eV     1   --> A'             
     e( 23 - 23) =     12.28075  eV     1   --> A'             
     e( 24 - 24) =     13.12341  eV     1   --> A'             
     e( 25 - 25) =     13.13045  eV     1   --> A''            

 **************************************************************************
 
     BANDS        :      7.33s CPU      8.70s WALL

 
   This run was terminated on:  14:24:53  12Jun2023            

=------------------------------------------------------------------------------=
   JOB DONE.
=------------------------------------------------------------------------------=
