
     Program PWSCF v.7.1 starts on 12Jun2023 at 14:23: 4 

     This program is part of the open-source Quantum ESPRESSO suite
     for quantum simulation of materials; please cite
         "P. Giannozzi et al., J. Phys.:Condens. Matter 21 395502 (2009);
         "P. Giannozzi et al., J. Phys.:Condens. Matter 29 465901 (2017);
         "P. Giannozzi et al., J. Chem. Phys. 152 154105 (2020);
          URL http://www.quantum-espresso.org", 
     in publications or presentations arising from this work. More details at
     http://www.quantum-espresso.org/quote

     Parallel version (MPI), running on    16 processors

     MPI processes distributed on     1 nodes
     102485 MiB available memory on the printing compute node when the environment starts
 
     Waiting for input...
     Reading input from standard input

     Current dimensions of program PWSCF are:
     Max number of different atomic species (ntypx) = 10
     Max number of k-points (npk) =  40000
     Max angular momentum in pseudopotentials (lmaxx) =  4
     Message from routine volume:
     axis vectors are left-handed

     Atomic positions and unit cell read from directory:
     ./work/Al2SO.save/
     Atomic positions from file used, from input discarded
 
     Message from routine volume:
     axis vectors are left-handed
     file Al.pbe-n-kjpaw_psl.1.0.0.UPF: wavefunction(s)  3S 3P renormalized
     file O.pbe-n-kjpaw_psl.1.0.0.UPF: wavefunction(s)  2S 2P renormalized
     file S.pbe-n-kjpaw_psl.1.0.0.UPF: wavefunction(s)  3S 3P renormalized

     IMPORTANT: XC functional enforced from input :
     Exchange-correlation= VDW-DF2-B86R
                           (   1   4  26   0   2   0   0)
     Any further DFT definition will be discarded
     Please, verify this is what you really want

     Message from routine setup:
     using ibrav=0 with symmetry is DISCOURAGED, use correct ibrav instead
 
     R & G space division:  proc/nbgrp/npool/nimage =      16
     Subspace diagonalization in iterative solution of the eigenvalue problem:
     a serial algorithm will be used

 
     Parallelization info
     --------------------
     sticks:   dense  smooth     PW     G-vecs:    dense   smooth      PW
     Min          39      39     11                 3361     3361     533
     Max          40      40     12                 3366     3366     548
     Sum         637     637    187                53817    53817    8669
 
     Using Slab Decomposition
 


     bravais-lattice index     =            0
     lattice parameter (alat)  =       6.1564  a.u.
     unit-cell volume          =     857.2901 (a.u.)^3
     number of atoms/cell      =            8
     number of atomic types    =            3
     number of electrons       =        36.00
     number of Kohn-Sham states=           25
     kinetic-energy cutoff     =      60.0000  Ry
     charge density cutoff     =     240.0000  Ry
     Exchange-correlation= VDW-DF2-B86R
                           (   1   4  26   0   2   0   0)

     celldm(1)=   6.156363  celldm(2)=   0.000000  celldm(3)=   0.000000
     celldm(4)=   0.000000  celldm(5)=   0.000000  celldm(6)=   0.000000

     crystal axes: (cart. coord. in units of alat)
               a(1) = (   0.866118   0.499839   0.000000 )  
               a(2) = (   0.866118  -0.499839   0.000000 )  
               a(3) = (   0.000000   0.000000   4.243436 )  

     reciprocal axes: (cart. coord. in units 2 pi/alat)
               b(1) = (  0.577288  1.000322  0.000000 )  
               b(2) = (  0.577288 -1.000322  0.000000 )  
               b(3) = (  0.000000  0.000000  0.235658 )  


     PseudoPot. # 1 for Al read from file:
     /home/mainadmin/research/danu/pseudo/Al.pbe-n-kjpaw_psl.1.0.0.UPF
     MD5 check sum: 502b6b27b9c6270cab5dd1084b96fa6d
     Pseudo is Projector augmented-wave + core cor, Zval =  3.0
     Generated using &quot;atomic&quot; code by A. Dal Corso  v.6.3
     Shape of augmentation charge: PSQ
     Using radial grid of 1135 points,  6 beta functions with: 
                l(1) =   0
                l(2) =   0
                l(3) =   1
                l(4) =   1
                l(5) =   2
                l(6) =   2
     Q(r) pseudized with 0 coefficients 


     PseudoPot. # 2 for O  read from file:
     /home/mainadmin/research/danu/pseudo/O.pbe-n-kjpaw_psl.1.0.0.UPF
     MD5 check sum: e99d9cef9b487d1ca56f5b95ecd0fd7a
     Pseudo is Projector augmented-wave + core cor, Zval =  6.0
     Generated using &quot;atomic&quot; code by A. Dal Corso  v.6.3
     Shape of augmentation charge: PSQ
     Using radial grid of 1095 points,  4 beta functions with: 
                l(1) =   0
                l(2) =   0
                l(3) =   1
                l(4) =   1
     Q(r) pseudized with 0 coefficients 


     PseudoPot. # 3 for S  read from file:
     /home/mainadmin/research/danu/pseudo/S.pbe-n-kjpaw_psl.1.0.0.UPF
     MD5 check sum: fb45dfebcf3e72a4e1bd4a866ec2e262
     Pseudo is Projector augmented-wave + core cor, Zval =  6.0
     Generated using &quot;atomic&quot; code by A. Dal Corso  v.6.3
     Shape of augmentation charge: PSQ
     Using radial grid of 1151 points,  6 beta functions with: 
                l(1) =   0
                l(2) =   0
                l(3) =   1
                l(4) =   1
                l(5) =   2
                l(6) =   2
     Q(r) pseudized with 0 coefficients 


     atomic species   valence    mass     pseudopotential
        Al             3.00    26.98100     Al( 1.00)
        O              6.00    15.99900     O ( 1.00)
        S              6.00    32.06500     S ( 1.00)

      2 Sym. Ops. (no inversion) found



   Cartesian axes

     site n.     atom                  positions (alat units)
         1           O   tau(   1) = (   0.5774121   0.0000000   0.0000000  )
         2           Al  tau(   2) = (   0.0000000   0.0000000   0.1305637  )
         3           Al  tau(   3) = (   0.0000000   0.0000000   0.9339928  )
         4           S   tau(   4) = (   0.5774121   0.0000000   1.3154094  )
         5           O   tau(   5) = (   1.1548243   0.0000000   2.1222735  )
         6           Al  tau(   6) = (   0.5774121   0.0000000   2.2490455  )
         7           Al  tau(   7) = (   0.5774121   0.0000000   3.0529687  )
         8           S   tau(   8) = (   1.1548243   0.0000000   3.4365719  )

     number of k points=    91
                       cart. coord. in units 2pi/alat
        k(    1) = (   0.0000000   0.0000000   0.0000000), wk =   0.0219780
        k(    2) = (   0.0192429   0.0111196   0.0000000), wk =   0.0219780
        k(    3) = (   0.0384859   0.0222392   0.0000000), wk =   0.0219780
        k(    4) = (   0.0577288   0.0333587   0.0000000), wk =   0.0219780
        k(    5) = (   0.0769718   0.0444783   0.0000000), wk =   0.0219780
        k(    6) = (   0.0962147   0.0555979   0.0000000), wk =   0.0219780
        k(    7) = (   0.1154577   0.0667175   0.0000000), wk =   0.0219780
        k(    8) = (   0.1347006   0.0778370   0.0000000), wk =   0.0219780
        k(    9) = (   0.1539436   0.0889566   0.0000000), wk =   0.0219780
        k(   10) = (   0.1731865   0.1000762   0.0000000), wk =   0.0219780
        k(   11) = (   0.1924295   0.1111958   0.0000000), wk =   0.0219780
        k(   12) = (   0.2116724   0.1223153   0.0000000), wk =   0.0219780
        k(   13) = (   0.2309154   0.1334349   0.0000000), wk =   0.0219780
        k(   14) = (   0.2501583   0.1445545   0.0000000), wk =   0.0219780
        k(   15) = (   0.2694013   0.1556741   0.0000000), wk =   0.0219780
        k(   16) = (   0.2886442   0.1667936   0.0000000), wk =   0.0219780
        k(   17) = (   0.3078871   0.1779132   0.0000000), wk =   0.0219780
        k(   18) = (   0.3271301   0.1890328   0.0000000), wk =   0.0219780
        k(   19) = (   0.3463730   0.2001524   0.0000000), wk =   0.0219780
        k(   20) = (   0.3656160   0.2112719   0.0000000), wk =   0.0219780
        k(   21) = (   0.3848589   0.2223915   0.0000000), wk =   0.0219780
        k(   22) = (   0.4041019   0.2335111   0.0000000), wk =   0.0219780
        k(   23) = (   0.4233448   0.2446307   0.0000000), wk =   0.0219780
        k(   24) = (   0.4425878   0.2557502   0.0000000), wk =   0.0219780
        k(   25) = (   0.4618307   0.2668698   0.0000000), wk =   0.0219780
        k(   26) = (   0.4810737   0.2779894   0.0000000), wk =   0.0219780
        k(   27) = (   0.5003166   0.2891090   0.0000000), wk =   0.0219780
        k(   28) = (   0.5195596   0.3002285   0.0000000), wk =   0.0219780
        k(   29) = (   0.5388025   0.3113481   0.0000000), wk =   0.0219780
        k(   30) = (   0.5580455   0.3224677   0.0000000), wk =   0.0219780
        k(   31) = (   0.5772884   0.3335873   0.0000000), wk =   0.0219780
        k(   32) = (   0.5772884   0.3224677   0.0000000), wk =   0.0219780
        k(   33) = (   0.5772884   0.3113481   0.0000000), wk =   0.0219780
        k(   34) = (   0.5772884   0.3002285   0.0000000), wk =   0.0219780
        k(   35) = (   0.5772884   0.2891090   0.0000000), wk =   0.0219780
        k(   36) = (   0.5772884   0.2779894   0.0000000), wk =   0.0219780
        k(   37) = (   0.5772884   0.2668698   0.0000000), wk =   0.0219780
        k(   38) = (   0.5772884   0.2557502   0.0000000), wk =   0.0219780
        k(   39) = (   0.5772884   0.2446307   0.0000000), wk =   0.0219780
        k(   40) = (   0.5772884   0.2335111   0.0000000), wk =   0.0219780
        k(   41) = (   0.5772884   0.2223915   0.0000000), wk =   0.0219780
        k(   42) = (   0.5772884   0.2112719   0.0000000), wk =   0.0219780
        k(   43) = (   0.5772884   0.2001524   0.0000000), wk =   0.0219780
        k(   44) = (   0.5772884   0.1890328   0.0000000), wk =   0.0219780
        k(   45) = (   0.5772884   0.1779132   0.0000000), wk =   0.0219780
        k(   46) = (   0.5772884   0.1667936   0.0000000), wk =   0.0219780
        k(   47) = (   0.5772884   0.1556741   0.0000000), wk =   0.0219780
        k(   48) = (   0.5772884   0.1445545   0.0000000), wk =   0.0219780
        k(   49) = (   0.5772884   0.1334349   0.0000000), wk =   0.0219780
        k(   50) = (   0.5772884   0.1223153   0.0000000), wk =   0.0219780
        k(   51) = (   0.5772884   0.1111958   0.0000000), wk =   0.0219780
        k(   52) = (   0.5772884   0.1000762   0.0000000), wk =   0.0219780
        k(   53) = (   0.5772884   0.0889566   0.0000000), wk =   0.0219780
        k(   54) = (   0.5772884   0.0778370   0.0000000), wk =   0.0219780
        k(   55) = (   0.5772884   0.0667175   0.0000000), wk =   0.0219780
        k(   56) = (   0.5772884   0.0555979   0.0000000), wk =   0.0219780
        k(   57) = (   0.5772884   0.0444783   0.0000000), wk =   0.0219780
        k(   58) = (   0.5772884   0.0333587   0.0000000), wk =   0.0219780
        k(   59) = (   0.5772884   0.0222392   0.0000000), wk =   0.0219780
        k(   60) = (   0.5772884   0.0111196   0.0000000), wk =   0.0219780
        k(   61) = (   0.5772884   0.0000000   0.0000000), wk =   0.0219780
        k(   62) = (   0.5580455   0.0000000   0.0000000), wk =   0.0219780
        k(   63) = (   0.5388025   0.0000000   0.0000000), wk =   0.0219780
        k(   64) = (   0.5195596   0.0000000   0.0000000), wk =   0.0219780
        k(   65) = (   0.5003166   0.0000000   0.0000000), wk =   0.0219780
        k(   66) = (   0.4810737   0.0000000   0.0000000), wk =   0.0219780
        k(   67) = (   0.4618307   0.0000000   0.0000000), wk =   0.0219780
        k(   68) = (   0.4425878   0.0000000   0.0000000), wk =   0.0219780
        k(   69) = (   0.4233448   0.0000000   0.0000000), wk =   0.0219780
        k(   70) = (   0.4041019   0.0000000   0.0000000), wk =   0.0219780
        k(   71) = (   0.3848589   0.0000000   0.0000000), wk =   0.0219780
        k(   72) = (   0.3656160   0.0000000   0.0000000), wk =   0.0219780
        k(   73) = (   0.3463730   0.0000000   0.0000000), wk =   0.0219780
        k(   74) = (   0.3271301   0.0000000   0.0000000), wk =   0.0219780
        k(   75) = (   0.3078871   0.0000000   0.0000000), wk =   0.0219780
        k(   76) = (   0.2886442   0.0000000   0.0000000), wk =   0.0219780
        k(   77) = (   0.2694013   0.0000000   0.0000000), wk =   0.0219780
        k(   78) = (   0.2501583   0.0000000   0.0000000), wk =   0.0219780
        k(   79) = (   0.2309154   0.0000000   0.0000000), wk =   0.0219780
        k(   80) = (   0.2116724   0.0000000   0.0000000), wk =   0.0219780
        k(   81) = (   0.1924295   0.0000000   0.0000000), wk =   0.0219780
        k(   82) = (   0.1731865   0.0000000   0.0000000), wk =   0.0219780
        k(   83) = (   0.1539436   0.0000000   0.0000000), wk =   0.0219780
        k(   84) = (   0.1347006   0.0000000   0.0000000), wk =   0.0219780
        k(   85) = (   0.1154577   0.0000000   0.0000000), wk =   0.0219780
        k(   86) = (   0.0962147   0.0000000   0.0000000), wk =   0.0219780
        k(   87) = (   0.0769718   0.0000000   0.0000000), wk =   0.0219780
        k(   88) = (   0.0577288   0.0000000   0.0000000), wk =   0.0219780
        k(   89) = (   0.0384859   0.0000000   0.0000000), wk =   0.0219780
        k(   90) = (   0.0192429   0.0000000   0.0000000), wk =   0.0219780
        k(   91) = (   0.0000000   0.0000000   0.0000000), wk =   0.0219780

     Dense  grid:    53817 G-vectors     FFT dimensions: (  32,  32, 135)

     Estimated max dynamical RAM per process >      15.74 MB

     Estimated total dynamical RAM >     251.84 MB

     Check: negative core charge=   -0.000003

     The potential is recalculated from file :
     ./work/Al2SO.save/charge-density



     %%%%%%%%%%%%%%%%%%%%%%%%%%%%%%%%%%%%%%%%%%%%%%%%%%%%%%%%%%%%%%%%%%%%%%%%
     %                                                                      %
     % You are using vdW-DF, which was implemented by the Thonhauser group. %
     % Please cite the following two papers that made this development      %
     % possible and the two reviews that describe the various versions:     %
     %                                                                      %
     %   T. Thonhauser et al., PRL 115, 136402 (2015).                      %
     %   T. Thonhauser et al., PRB 76, 125112 (2007).                       %
     %   K. Berland et al., Rep. Prog. Phys. 78, 066501 (2015).             %
     %   D.C. Langreth et al., J. Phys.: Condens. Matter 21, 084203 (2009). %
     %                                                                      %
     % If you are calculating stress with vdW-DF, please also cite:         %
     %                                                                      %
     %   R. Sabatini et al., J. Phys.: Condens. Matter 24, 424209 (2012).   %
     %                                                                      %
     %%%%%%%%%%%%%%%%%%%%%%%%%%%%%%%%%%%%%%%%%%%%%%%%%%%%%%%%%%%%%%%%%%%%%%%%

     %%%%%%%%%%%%%%%%%%%%%%%%%%%%%%%%%%%%%%%%%%%%%%%%%%%%%%%%%%%%%%%%%%%%%%%%
     %                                                                      %
     %  vdW-DF NEWS:                                                        %
     %                                                                      %
     %  * vdW-DF3 is now available. DOI: 10.1021/acs.jctc.0c00471           %
     %    use with input_dft = 'vdW-DF3-opt1' or 'vdW-DF3-opt2'             %
     %                                                                      %
     %  * Unscreened and range-separated vdW-DF hybrid functionals          %
     %    DOI: 10.1063/1.4986522 and 10.1088/1361-648X/ac2ad2               %
     %    use with input_dft = 'vdW-DF-cx0' (etc) and 'vdW-DF-ahcx'         %
     %                                                                      %
     %%%%%%%%%%%%%%%%%%%%%%%%%%%%%%%%%%%%%%%%%%%%%%%%%%%%%%%%%%%%%%%%%%%%%%%%


     Starting wfcs are   32 randomized atomic wfcs
     Checking if some PAW data can be deallocated... 

     Band Structure Calculation
     Davidson diagonalization with overlap
     c_bands:  1 eigenvalues not converged
     c_bands:  1 eigenvalues not converged
     c_bands:  1 eigenvalues not converged
     c_bands:  1 eigenvalues not converged
     c_bands:  1 eigenvalues not converged
     c_bands:  1 eigenvalues not converged
     c_bands:  1 eigenvalues not converged
     c_bands:  1 eigenvalues not converged
     c_bands:  1 eigenvalues not converged
     c_bands:  1 eigenvalues not converged
     c_bands:  1 eigenvalues not converged
     c_bands:  1 eigenvalues not converged
     c_bands:  1 eigenvalues not converged
     c_bands:  1 eigenvalues not converged
     c_bands:  1 eigenvalues not converged
     c_bands:  1 eigenvalues not converged
     c_bands:  1 eigenvalues not converged
     c_bands:  1 eigenvalues not converged
     c_bands:  1 eigenvalues not converged
     c_bands:  1 eigenvalues not converged
     c_bands:  1 eigenvalues not converged
     c_bands:  1 eigenvalues not converged
     c_bands:  1 eigenvalues not converged
     c_bands:  1 eigenvalues not converged
     c_bands:  1 eigenvalues not converged
     c_bands:  1 eigenvalues not converged
     c_bands:  1 eigenvalues not converged

     ethr =  2.78E-11,  avg # of iterations =102.9

     total cpu time spent up to now is       97.8 secs

     End of band structure calculation

          k = 0.0000 0.0000 0.0000 (  6803 PWs)   bands (ev):

   -13.5085 -13.2313  -8.2109  -7.8791  -0.7566   0.0294   0.8421   1.3961
     1.3972   1.6703   1.6714   2.5925   3.6252   5.5729   5.5760   5.5807
     5.9086   5.9118   7.1711   8.9686  11.6241  11.8824  12.2807  13.1234
    13.1304

          k = 0.0192 0.0111 0.0000 (  6758 PWs)   bands (ev):

   -13.5067 -13.2295  -8.2062  -7.8744  -0.7514   0.0307   0.8460   1.3808
     1.3949   1.6543   1.6691   2.6008   3.6361   5.5407   5.5679   5.5833
     5.8762   5.9037   7.1866   8.9789  11.6231  11.9106  12.3069  13.0935
    13.1405

          k = 0.0385 0.0222 0.0000 (  6745 PWs)   bands (ev):

   -13.5012 -13.2240  -8.1920  -7.8601  -0.7359   0.0340   0.8579   1.3342
     1.3887   1.6094   1.6628   2.6232   3.6681   5.4459   5.5457   5.5901
     5.7802   5.8814   7.2320   9.0096  11.6179  11.9912  12.3820  13.0044
    13.1738

          k = 0.0577 0.0334 0.0000 (  6741 PWs)   bands (ev):

   -13.4921 -13.2148  -8.1684  -7.8364  -0.7102   0.0384   0.8774   1.2584
     1.3781   1.5456   1.6523   2.6541   3.7181   5.2967   5.5084   5.5985
     5.6314   5.8441   7.3053   9.0594  11.6047  12.1122  12.4935  12.8708
    13.1864

          k = 0.0770 0.0445 0.0000 (  6745 PWs)   bands (ev):

   -13.4795 -13.2022  -8.1355  -7.8033  -0.6746   0.0419   0.9039   1.1571
     1.3632   1.4731   1.6374   2.6881   3.7814   5.1039   5.4355   5.4558
     5.6129   5.7915   7.4037   9.1266  11.5806  12.2546  12.6028  12.7262
    13.0593

          k = 0.0962 0.0556 0.0000 (  6735 PWs)   bands (ev):

   -13.4636 -13.1862  -8.0935  -7.7610  -0.6296   0.0418   0.9339   1.0394
     1.3437   1.4004   1.6180   2.7214   3.8510   4.8800   5.2126   5.3876
     5.6247   5.7233   7.5250   9.2089  11.5436  12.3780  12.5173  12.7514
    12.9352

          k = 0.1155 0.0667 0.0000 (  6739 PWs)   bands (ev):

   -13.4445 -13.1671  -8.0426  -7.7098  -0.5761   0.0349   0.8865   0.9916
     1.3187   1.3357   1.5939   2.7516   3.9148   4.6385   4.9753   5.3037
     5.6301   5.6445   7.6665   9.3038  11.4919  12.2624  12.5762  12.6688
    12.9651

          k = 0.1347 0.0778 0.0000 (  6749 PWs)   bands (ev):

   -13.4225 -13.1450  -7.9830  -7.6498  -0.5155   0.0179   0.7467   1.0330
     1.2804   1.2940   1.5649   2.7763   3.9454   4.3977   4.7489   5.2039
     5.5375   5.6455   7.8258   9.4081  11.4224  12.0572  12.4926  12.7021
    13.0264

          k = 0.1539 0.0890 0.0000 (  6763 PWs)   bands (ev):

   -13.3978 -13.1202  -7.9151  -7.5814  -0.4513  -0.0102   0.5993   1.0811
     1.2464   1.2654   1.5311   2.7918   3.8822   4.1797   4.5875   5.0883
     5.4213   5.6511   8.0001   9.5179  11.3307  11.8475  12.2991  12.8130
    12.9131

          k = 0.1732 0.1001 0.0000 (  6755 PWs)   bands (ev):

   -13.3708 -13.0930  -7.8391  -7.5050  -0.3917  -0.0444   0.4526   1.1267
     1.2119   1.2626   1.4927   2.7909   3.7031   3.9661   4.5482   4.9576
     5.2894   5.6535   8.1871   9.6290  11.2103  11.6437  12.1006  12.7351
    12.9235

          k = 0.1924 0.1112 0.0000 (  6749 PWs)   bands (ev):

   -13.3416 -13.0638  -7.7557  -7.4209  -0.3566  -0.0674   0.3130   1.1604
     1.1726   1.2958   1.4515   2.7596   3.4843   3.7399   4.5936   4.8133
     5.1430   5.6523   8.3843   9.7361  11.0564  11.4483  11.9070  12.5791
    12.8350

          k = 0.2117 0.1223 0.0000 (  6749 PWs)   bands (ev):

   -13.3108 -13.0328  -7.6653  -7.3298  -0.3729  -0.0633   0.1967   1.1155
     1.2025   1.3386   1.4221   2.6763   3.2705   3.5380   4.6344   4.6919
     4.9849   5.6477   8.5894   9.8330  10.8716  11.2551  11.7296  12.4201
    12.6489

          k = 0.2309 0.1334 0.0000 (  6741 PWs)   bands (ev):

   -13.2787 -13.0006  -7.5685  -7.2322  -0.4356  -0.0862   0.1584   1.0582
     1.2370   1.3236   1.4629   2.5293   3.0594   3.4045   4.4767   4.7406
     4.8427   5.6398   8.8001   9.9120  10.6659  11.0531  11.5768  12.2407
    12.5032

          k = 0.2502 0.1446 0.0000 (  6741 PWs)   bands (ev):

   -13.2456 -12.9674  -7.4661  -7.1289  -0.5205  -0.1782   0.2211   0.9947
     1.2360   1.3059   1.5426   2.3370   2.8478   3.3432   4.2958   4.6065
     4.8880   5.6294   9.0141   9.9640  10.4521  10.8380  11.4500  12.0435
    12.4088

          k = 0.2694 0.1557 0.0000 (  6753 PWs)   bands (ev):

   -13.2121 -12.9337  -7.3589  -7.0208  -0.6129  -0.2894   0.3238   0.9252
     1.1768   1.3257   1.6283   2.1301   2.6544   3.3238   4.1060   4.4157
     4.9791   5.6177   9.2280   9.9734  10.2485  10.6128  11.3460  11.8465
    12.3563

          k = 0.2886 0.1668 0.0000 (  6731 PWs)   bands (ev):

   -13.1785 -12.9000  -7.2479  -6.9087  -0.7052  -0.3983   0.4381   0.8507
     1.1025   1.3298   1.7008   1.9401   2.5032   3.3228   3.9112   4.2141
     5.0670   5.6068   9.4352   9.8918  10.1092  10.3843  11.2592  11.6629
    12.3388

          k = 0.3079 0.1779 0.0000 (  6725 PWs)   bands (ev):

   -13.1453 -12.8666  -7.1342  -6.7939  -0.7931  -0.4993   0.5471   0.7745
     1.0244   1.2971   1.6637   1.8690   2.4171   3.3244   3.7178   4.0061
     5.1442   5.5999   9.6132   9.7136  10.0559  10.1684  11.1817  11.5028
    12.3500

          k = 0.3271 0.1890 0.0000 (  6723 PWs)   bands (ev):

   -13.1129 -12.8341  -7.0191  -6.6776  -0.8735  -0.5897   0.6062   0.7159
     0.9597   1.2255   1.5123   1.9243   2.4058   3.3040   3.5471   3.7945
     5.2052   5.6013   9.4936   9.7163   9.9389  10.1176  11.1010  11.3785
    12.2800

          k = 0.3464 0.2002 0.0000 (  6733 PWs)   bands (ev):

   -13.0816 -12.8027  -6.9040  -6.5611  -0.9442  -0.6681   0.5552   0.6804
     0.9416   1.1397   1.3706   1.9929   2.4558   3.1996   3.4580   3.5840
     5.2457   5.6140   9.2829   9.6107   9.8396  10.2450  11.0078  11.2996
    12.1437

          k = 0.3656 0.2113 0.0000 (  6726 PWs)   bands (ev):

   -13.0520 -12.7729  -6.7904  -6.4462  -1.0038  -0.7337   0.4651   0.5973
     0.9125   1.0696   1.3036   2.0603   2.5423   3.0233   3.3545   3.4625
     5.2668   5.6373   9.0756   9.4101   9.7892  10.4195  10.9077  11.2637
    12.0042

          k = 0.3849 0.2224 0.0000 (  6724 PWs)   bands (ev):

   -13.0242 -12.7451  -6.6802  -6.3345  -1.0510  -0.7856   0.3665   0.4910
     0.8261   0.9727   1.3649   2.1224   2.6401   2.8383   3.1483   3.4664
     5.2746   5.6658   8.8752   9.2008   9.7500  10.5891  10.8132  11.2663
    11.8655

          k = 0.4041 0.2335 0.0000 (  6712 PWs)   bands (ev):

   -12.9987 -12.7194  -6.5750  -6.2279  -1.0852  -0.8234   0.2649   0.3829
     0.7257   0.8621   1.4836   2.1701   2.6213   2.7781   2.9474   3.4802
     5.2773   5.6930   8.6834   8.9975   9.7261  10.7093  10.7483  11.3108
    11.7330

          k = 0.4233 0.2446 0.0000 (  6702 PWs)   bands (ev):

   -12.9757 -12.6963  -6.4768  -6.1281  -1.1058  -0.8468   0.1625   0.2823
     0.6275   0.7627   1.6143   2.1757   2.4849   2.7237   2.8996   3.4972
     5.2816   5.7152   8.5019   8.8043   9.7214  10.6578  10.8232  11.3848
    11.6262

          k = 0.4426 0.2558 0.0000 (  6690 PWs)   bands (ev):

   -12.9554 -12.6759  -6.3872  -6.0371  -1.1127  -0.8560   0.0605   0.1926
     0.5377   0.6826   1.7390   2.0921   2.4145   2.5531   2.9903   3.5167
     5.2920   5.7314   8.3324   8.6240   9.7371  10.6062  10.8743  11.3838
    11.6347

          k = 0.4618 0.2669 0.0000 (  6694 PWs)   bands (ev):

   -12.9379 -12.6583  -6.3079  -5.9565  -1.1060  -0.8511  -0.0405   0.1131
     0.4626   0.6259   1.8218   1.9713   2.3089   2.4881   3.0721   3.5394
     5.3104   5.7431   8.1772   8.4587   9.7711  10.5681  10.9059  11.2902
    11.7376

          k = 0.4811 0.2780 0.0000 (  6680 PWs)   bands (ev):

   -12.9233 -12.6437  -6.2403  -5.8877  -1.0863  -0.8327  -0.1401   0.0391
     0.4099   0.5948   1.7280   1.9743   2.1695   2.5049   3.1362   3.5652
     5.3363   5.7534   8.0390   8.3108   9.8188  10.5412  10.9320  11.1904
    11.7713

          k = 0.5003 0.2891 0.0000 (  6715 PWs)   bands (ev):

   -12.9116 -12.6320  -6.1852  -5.8316  -1.0546  -0.8023  -0.2374  -0.0345
     0.3868   0.5895   1.5685   1.9112   2.1492   2.5302   3.1820   3.5923
     5.3661   5.7658   7.9210   8.1830   9.8725  10.5216  10.9600  11.1081
    11.7279

          k = 0.5196 0.3002 0.0000 (  6726 PWs)   bands (ev):

   -12.9028 -12.6231  -6.1431  -5.7887  -1.0132  -0.7620  -0.3301  -0.1092
     0.3951   0.6073   1.4132   1.7758   2.2019   2.5525   3.2123   3.6175
     5.3948   5.7822   7.8270   8.0782   9.9224  10.5056  10.9876  11.0601
    11.6731

          k = 0.5388 0.3113 0.0000 (  6718 PWs)   bands (ev):

   -12.8968 -12.6170  -6.1141  -5.7591  -0.9666  -0.7167  -0.4136  -0.1804
     0.4285   0.6410   1.2759   1.6504   2.2472   2.5689   3.2308   3.6374
     5.4178   5.8013   7.7601   7.9998   9.9588  10.4917  10.9936  11.0711
    11.6197

          k = 0.5580 0.3225 0.0000 (  6714 PWs)   bands (ev):

   -12.8933 -12.6135  -6.0974  -5.7421  -0.9247  -0.6763  -0.4776  -0.2369
     0.4706   0.6766   1.1732   1.5590   2.2740   2.5786   3.2408   3.6497
     5.4322   5.8175   7.7217   7.9515   9.9769  10.4815  10.9945  11.1106
    11.5713

          k = 0.5773 0.3336 0.0000 (  6714 PWs)   bands (ev):

   -12.8922 -12.6124  -6.0921  -5.7367  -0.9061  -0.6585  -0.5035  -0.2601
     0.4920   0.6932   1.1323   1.5239   2.2825   2.5818   3.2440   3.6538
     5.4371   5.8241   7.7098   7.9354   9.9805  10.4778  10.9982  11.1319
    11.5473

          k = 0.5773 0.3225 0.0000 (  6714 PWs)   bands (ev):

   -12.8924 -12.6127  -6.0934  -5.7380  -0.9113  -0.6634  -0.4965  -0.2538
     0.4855   0.6883   1.1434   1.5334   2.2805   2.5811   3.2432   3.6528
     5.4358   5.8222   7.7125   7.9393   9.9805  10.4788  10.9961  11.1255
    11.5548

          k = 0.5773 0.3113 0.0000 (  6726 PWs)   bands (ev):

   -12.8932 -12.6135  -6.0969  -5.7417  -0.9266  -0.6779  -0.4761  -0.2353
     0.4663   0.6731   1.1768   1.5619   2.2752   2.5790   3.2408   3.6501
     5.4320   5.8165   7.7199   7.9500   9.9819  10.4816  10.9872  11.1088
    11.5756

          k = 0.5773 0.3002 0.0000 (  6720 PWs)   bands (ev):

   -12.8944 -12.6147  -6.1026  -5.7474  -0.9501  -0.7002  -0.4441  -0.2066
     0.4368   0.6484   1.2299   1.6082   2.2669   2.5760   3.2368   3.6459
     5.4257   5.8071   7.7312   7.9664   9.9865  10.4861  10.9684  11.0873
    11.6047

          k = 0.5773 0.2891 0.0000 (  6718 PWs)   bands (ev):

   -12.8961 -12.6163  -6.1102  -5.7552  -0.9792  -0.7281  -0.4032  -0.1705
     0.4007   0.6159   1.2991   1.6699   2.2562   2.5722   3.2312   3.6404
     5.4168   5.7941   7.7456   7.9868   9.9962  10.4921  10.9378  11.0671
    11.6350

          k = 0.5773 0.2780 0.0000 (  6710 PWs)   bands (ev):

   -12.8981 -12.6183  -6.1194  -5.7646  -1.0119  -0.7596  -0.3556  -0.1299
     0.3618   0.5778   1.3811   1.7442   2.2438   2.5682   3.2240   3.6339
     5.4055   5.7779   7.7624   8.0094  10.0129  10.4987  10.8976  11.0503
    11.6603

          k = 0.5773 0.2669 0.0000 (  6714 PWs)   bands (ev):

   -12.9004 -12.6207  -6.1301  -5.7755  -1.0466  -0.7933  -0.3029  -0.0879
     0.3239   0.5359   1.4730   1.8281   2.2304   2.5645   3.2153   3.6267
     5.3919   5.7590   7.7805   8.0323  10.0377  10.5046  10.8527  11.0367
    11.6775

          k = 0.5773 0.2558 0.0000 (  6718 PWs)   bands (ev):

   -12.9031 -12.6234  -6.1421  -5.7876  -1.0824  -0.8280  -0.2464  -0.0488
     0.2915   0.4919   1.5726   1.9182   2.2177   2.5620   3.2050   3.6190
     5.3760   5.7378   7.7988   8.0543  10.0717  10.5072  10.8083  11.0261
    11.6862

          k = 0.5773 0.2446 0.0000 (  6716 PWs)   bands (ev):

   -12.9060 -12.6263  -6.1551  -5.8008  -1.1184  -0.8632  -0.1873  -0.0186
     0.2712   0.4468   1.6777   2.0085   2.2095   2.5621   3.1935   3.6111
     5.3582   5.7150   7.8159   8.0740  10.1150  10.5023  10.7702  11.0192
    11.6873

          k = 0.5773 0.2335 0.0000 (  6702 PWs)   bands (ev):

   -12.9091 -12.6295  -6.1689  -5.8149  -1.1542  -0.8981  -0.1266  -0.0050
     0.2709   0.4018   1.7864   2.0821   2.2205   2.5671   3.1809   3.6033
     5.3387   5.6908   7.8304   8.0912  10.1671  10.4848  10.7440  11.0177
    11.6822

          k = 0.5773 0.2224 0.0000 (  6704 PWs)   bands (ev):

   -12.9124 -12.6328  -6.1833  -5.8295  -1.1895  -0.9326  -0.0679  -0.0085
     0.2937   0.3576   1.8958   2.1100   2.2759   2.5816   3.1675   3.5957
     5.3177   5.6657   7.8408   8.1056  10.2263  10.4526  10.7322  11.0234
    11.6725

          k = 0.5773 0.2113 0.0000 (  6700 PWs)   bands (ev):

   -12.9159 -12.6362  -6.1981  -5.8446  -1.2238  -0.9663  -0.0466   0.0108
     0.3143   0.3351   2.0005   2.1086   2.3549   2.6136   3.1538   3.5887
     5.2956   5.6402   7.8458   8.1176  10.2889  10.4080  10.7335  11.0383
    11.6599

          k = 0.5773 0.2002 0.0000 (  6704 PWs)   bands (ev):

   -12.9194 -12.6398  -6.2132  -5.8600  -1.2571  -0.9990  -0.0726   0.0680
     0.2754   0.3859   2.0698   2.1251   2.4293   2.6729   3.1404   3.5824
     5.2727   5.6144   7.8444   8.1276  10.3492  10.3554  10.7472  11.0631
    11.6464

          k = 0.5773 0.1890 0.0000 (  6716 PWs)   bands (ev):

   -12.9230 -12.6434  -6.2284  -5.8754  -1.2892  -1.0305  -0.1060   0.1226
     0.2445   0.4428   2.0651   2.1957   2.4984   2.7601   3.1286   3.5773
     5.2492   5.5888   7.8361   8.1358  10.2980  10.3995  10.7758  11.0966
    11.6343

          k = 0.5773 0.1779 0.0000 (  6716 PWs)   bands (ev):

   -12.9266 -12.6470  -6.2436  -5.8908  -1.3199  -1.0607  -0.1410   0.1478
     0.2451   0.5026   2.0489   2.2516   2.5755   2.8640   3.1209   3.5740
     5.2254   5.5636   7.8212   8.1423  10.2384  10.4317  10.8228  11.1360
    11.6260

          k = 0.5773 0.1668 0.0000 (  6714 PWs)   bands (ev):

   -12.9302 -12.6506  -6.2585  -5.9059  -1.3492  -1.0894  -0.1760   0.1299
     0.2905   0.5637   2.0311   2.2839   2.6650   2.9697   3.1247   3.5734
     5.2017   5.5390   7.8003   8.1468  10.1777  10.4441  10.8863  11.1767
    11.6238

          k = 0.5773 0.1557 0.0000 (  6710 PWs)   bands (ev):

   -12.9337 -12.6541  -6.2730  -5.9207  -1.3768  -1.1166  -0.2099   0.0999
     0.3490   0.6250   2.0133   2.2996   2.7577   3.0497   3.1655   3.5772
     5.1782   5.5152   7.7742   8.1490  10.1168  10.4404  10.9572  11.2121
    11.6264

          k = 0.5773 0.1446 0.0000 (  6716 PWs)   bands (ev):

   -12.9371 -12.6576  -6.2871  -5.9350  -1.4029  -1.1423  -0.2424   0.0687
     0.4094   0.6856   1.9958   2.3055   2.8373   3.0953   3.2560   3.5889
     5.1551   5.4923   7.7440   8.1487  10.0561  10.4258  11.0236  11.2333
    11.5740

          k = 0.5773 0.1334 0.0000 (  6718 PWs)   bands (ev):

   -12.9405 -12.6609  -6.3005  -5.9487  -1.4272  -1.1662  -0.2730   0.0386
     0.4690   0.7448   1.9789   2.3061   2.8867   3.1512   3.3552   3.6159
     5.1328   5.4706   7.7107   8.1457   9.9960  10.4038  11.0745  11.2269
    11.4921

          k = 0.5773 0.1223 0.0000 (  6708 PWs)   bands (ev):

   -12.9436 -12.6641  -6.3133  -5.9616  -1.4498  -1.1884  -0.3016   0.0103
     0.5267   0.8021   1.9629   2.3037   2.9058   3.2253   3.4403   3.6691
     5.1113   5.4501   7.6754   8.1401   9.9368  10.3769  11.1026  11.1854
    11.3989

          k = 0.5773 0.1112 0.0000 (  6712 PWs)   bands (ev):

   -12.9466 -12.6671  -6.3253  -5.9738  -1.4705  -1.2089  -0.3280  -0.0159
     0.5817   0.8567   1.9478   2.2997   2.9077   3.2979   3.5112   3.7515
     5.0909   5.4310   7.6390   8.1319   9.8786  10.3464  11.0848  11.1403
    11.2923

          k = 0.5773 0.1001 0.0000 (  6712 PWs)   bands (ev):

   -12.9494 -12.6699  -6.3363  -5.9850  -1.4894  -1.2275  -0.3521  -0.0398
     0.6336   0.9083   1.9339   2.2947   2.9019   3.3509   3.5852   3.8512
     5.0716   5.4133   7.6024   8.1216   9.8216  10.3134  11.0014  11.1211
    11.1920

          k = 0.5773 0.0890 0.0000 (  6726 PWs)   bands (ev):

   -12.9520 -12.6725  -6.3464  -5.9953  -1.5064  -1.2443  -0.3738  -0.0614
     0.6817   0.9561   1.9212   2.2894   2.8929   3.3815   3.6703   3.9559
     5.0537   5.3972   7.5664   8.1095   9.7661  10.2786  10.9010  11.0517
    11.1507

          k = 0.5773 0.0778 0.0000 (  6718 PWs)   bands (ev):

   -12.9543 -12.6748  -6.3555  -6.0045  -1.5215  -1.2591  -0.3930  -0.0805
     0.7255   0.9999   1.9097   2.2842   2.8829   3.3974   3.7603   4.0583
     5.0373   5.3828   7.5319   8.0962   9.7125  10.2431  10.7972  10.9644
    11.1390

          k = 0.5773 0.0667 0.0000 (  6704 PWs)   bands (ev):

   -12.9563 -12.6768  -6.3635  -6.0126  -1.5346  -1.2720  -0.4098  -0.0972
     0.7647   1.0389   1.8997   2.2792   2.8730   3.4055   3.8481   4.1544
     5.0224   5.3701   7.4997   8.0823   9.6618  10.2078  10.6969  10.8886
    11.1303

          k = 0.5773 0.0556 0.0000 (  6720 PWs)   bands (ev):

   -12.9581 -12.6786  -6.3703  -6.0195  -1.5458  -1.2830  -0.4241  -0.1113
     0.7986   1.0729   1.8910   2.2747   2.8638   3.4097   3.9288   4.2411
     5.0091   5.3593   7.4706   8.0687   9.6150  10.1741  10.6057  10.8267
    11.1224

          k = 0.5773 0.0445 0.0000 (  6724 PWs)   bands (ev):

   -12.9595 -12.6801  -6.3760  -6.0252  -1.5549  -1.2920  -0.4358  -0.1229
     0.8269   1.1013   1.8839   2.2709   2.8558   3.4117   3.9991   4.3161
     4.9977   5.3502   7.4454   8.0560   9.5735  10.1435  10.5277  10.7781
    11.1155

          k = 0.5773 0.0334 0.0000 (  6742 PWs)   bands (ev):

   -12.9607 -12.6812  -6.3804  -6.0297  -1.5621  -1.2991  -0.4449  -0.1320
     0.8493   1.1238   1.8782   2.2677   2.8492   3.4127   4.0565   4.3772
     4.9884   5.3431   7.4248   8.0451   9.5389  10.1176  10.4654  10.7417
    11.1098

          k = 0.5773 0.0222 0.0000 (  6730 PWs)   bands (ev):

   -12.9615 -12.6820  -6.3836  -6.0330  -1.5672  -1.3041  -0.4514  -0.1384
     0.8656   1.1401   1.8742   2.2654   2.8444   3.4131   4.0989   4.4225
     4.9813   5.3380   7.4095   8.0366   9.5129  10.0977  10.4202  10.7165
    11.1056

          k = 0.5773 0.0111 0.0000 (  6730 PWs)   bands (ev):

   -12.9620 -12.6825  -6.3855  -6.0349  -1.5702  -1.3071  -0.4553  -0.1423
     0.8754   1.1500   1.8717   2.2640   2.8415   3.4132   4.1250   4.4504
     4.9769   5.3350   7.4001   8.0313   9.4967  10.0852  10.3929  10.7018
    11.1031

          k = 0.5773 0.0000 0.0000 (  6730 PWs)   bands (ev):

   -12.9622 -12.6827  -6.3862  -6.0356  -1.5712  -1.3081  -0.4566  -0.1436
     0.8787   1.1533   1.8709   2.2635   2.8405   3.4132   4.1338   4.4598
     4.9754   5.3339   7.3970   8.0295   9.4911  10.0809  10.3838  10.6969
    11.1022

          k = 0.5580 0.0000 0.0000 (  6732 PWs)   bands (ev):

   -12.9638 -12.6843  -6.3940  -6.0435  -1.5658  -1.3026  -0.4424  -0.1296
     0.8800   1.1546   1.8527   2.2617   2.8339   3.4112   4.1368   4.4628
     4.9707   5.3508   7.4017   8.0423   9.4987  10.0829  10.3891  10.7039
    11.1031

          k = 0.5388 0.0000 0.0000 (  6734 PWs)   bands (ev):

   -12.9687 -12.6892  -6.4170  -6.0670  -1.5496  -1.2861  -0.4002  -0.0878
     0.8839   1.1585   1.8012   2.2546   2.8135   3.4056   4.1459   4.4719
     4.9622   5.3940   7.4178   8.0800   9.5209  10.0884  10.4050  10.7246
    11.1061

          k = 0.5196 0.0000 0.0000 (  6726 PWs)   bands (ev):

   -12.9767 -12.6973  -6.4546  -6.1051  -1.5227  -1.2589  -0.3309  -0.0192
     0.8904   1.1650   1.7234   2.2392   2.7778   3.3976   4.1609   4.4870
     4.9592   5.4488   7.4498   8.1408   9.5566  10.0961  10.4320  10.7577
    11.1126

          k = 0.5003 0.0000 0.0000 (  6738 PWs)   bands (ev):

   -12.9878 -12.7085  -6.5054  -6.1568  -1.4855  -1.2210  -0.2363   0.0746
     0.8993   1.1739   1.6269   2.2137   2.7258   3.3885   4.1818   4.5080
     4.9670   5.5022   7.5035   8.2224   9.6037  10.1038  10.4706  10.8009
    11.1253

          k = 0.4811 0.0000 0.0000 (  6705 PWs)   bands (ev):

   -13.0019 -12.7226  -6.5679  -6.2203  -1.4382  -1.1728  -0.1187   0.1916
     0.9108   1.1853   1.5180   2.1782   2.6585   3.3791   4.2086   4.5349
     4.9856   5.5450   7.5838   8.3228   9.6590  10.1091  10.5213  10.8506
    11.1492

          k = 0.4618 0.0000 0.0000 (  6715 PWs)   bands (ev):

   -13.0186 -12.7394  -6.6403  -6.2938  -1.3815  -1.1147   0.0188   0.3288
     0.9245   1.1991   1.4025   2.1340   2.5786   3.3692   4.2410   4.5676
     5.0118   5.5728   7.6934   8.4404   9.7177  10.1104  10.5845  10.9022
    11.1905

          k = 0.4426 0.0000 0.0000 (  6717 PWs)   bands (ev):

   -13.0378 -12.7587  -6.7209  -6.3756  -1.3159  -1.0471   0.1719   0.4825
     0.9404   1.2150   1.2867   2.0832   2.4903   3.3586   4.2790   4.6057
     5.0407   5.5853   7.8323   8.5734   9.7714  10.1098  10.6602  10.9530
    11.2546

          k = 0.4233 0.0000 0.0000 (  6727 PWs)   bands (ev):

   -13.0593 -12.7803  -6.8079  -6.4637  -1.2419  -0.9704   0.3334   0.6459
     0.9585   1.1806   1.2330   2.0280   2.3991   3.3469   4.3223   4.6493
     5.0663   5.5856   7.9975   8.7196   9.8061  10.1168  10.7483  11.0044
    11.3418

          k = 0.4041 0.0000 0.0000 (  6731 PWs)   bands (ev):

   -13.0827 -12.8038  -6.8995  -6.5565  -1.1603  -0.8852   0.4866   0.8028
     0.9784   1.1108   1.2529   1.9706   2.3121   3.3338   4.3708   4.6980
     5.0824   5.5795   8.1846   8.8754   9.8069  10.1447  10.8481  11.0605
    11.4484

          k = 0.3849 0.0000 0.0000 (  6745 PWs)   bands (ev):

   -13.1078 -12.8290  -6.9942  -6.6523  -1.0721  -0.7920   0.5857   0.9173
     1.0000   1.1487   1.2746   1.9129   2.2397   3.3195   4.4241   4.7516
     5.0831   5.5734   8.3875   9.0331   9.7773  10.1946  10.9585  11.1247
    11.5700

          k = 0.3656 0.0000 0.0000 (  6733 PWs)   bands (ev):

   -13.1342 -12.8555  -7.0905  -6.7497  -0.9782  -0.6917   0.5761   1.0232
     1.0255   1.2958   1.2978   1.8559   2.1990   3.3047   4.4819   4.8098
     5.0647   5.5722   8.5983   9.1745   9.7460  10.2553  11.0782  11.1988
    11.7026

          k = 0.3464 0.0000 0.0000 (  6737 PWs)   bands (ev):

   -13.1617 -12.8831  -7.1872  -6.8475  -0.8801  -0.5849   0.4982   1.0477
     1.1415   1.3222   1.4689   1.8047   2.2141   3.2903   4.5439   4.8722
     5.0271   5.5775   8.8029   9.2625   9.7655  10.3176  11.2041  11.2839
    11.8426

          k = 0.3271 0.0000 0.0000 (  6751 PWs)   bands (ev):

   -13.1898 -12.9114  -7.2832  -6.9444  -0.7794  -0.4728   0.4004   1.0733
     1.2200   1.3478   1.5954   1.8106   2.3022   3.2784   4.6097   4.9384
     4.9734   5.5879   8.9596   9.2969   9.8727  10.3782  11.3292  11.3847
    11.9851

          k = 0.3079 0.0000 0.0000 (  6755 PWs)   bands (ev):

   -13.2184 -12.9400  -7.3774  -7.0395  -0.6782  -0.3571   0.3009   1.0996
     1.2491   1.3741   1.5797   1.9679   2.4570   3.2725   4.6788   4.9076
     5.0079   5.6008   8.9768   9.3896  10.0345  10.4432  11.4417  11.5098
    12.1201

          k = 0.2886 0.0000 0.0000 (  6757 PWs)   bands (ev):

   -13.2470 -12.9687  -7.4691  -7.1320  -0.5798  -0.2411   0.2097   1.1265
     1.2435   1.4010   1.5147   2.1794   2.6552   3.2793   4.7506   4.8340
     5.0801   5.6141   8.8799   9.5334  10.2084  10.5321  11.5445  11.6530
    12.2353

          k = 0.2694 0.0000 0.0000 (  6745 PWs)   bands (ev):

   -13.2753 -12.9972  -7.5574  -7.2210  -0.4889  -0.1361   0.1423   1.1537
     1.2209   1.4281   1.4436   2.3906   2.8735   3.3125   4.7560   4.8246
     5.1545   5.6262   8.7425   9.6473  10.3761  10.6682  11.6432  11.8070
    12.3447

          k = 0.2502 0.0000 0.0000 (  6759 PWs)   bands (ev):

   -13.3031 -13.0251  -7.6418  -7.3061  -0.4142  -0.0789   0.1420   1.1808
     1.1930   1.3751   1.4552   2.5729   3.0913   3.3977   4.6774   4.8999
     5.2304   5.6360   8.5893   9.6983  10.5488  10.8476  11.7395  11.9710
    12.4677

          k = 0.2309 0.0000 0.0000 (  6755 PWs)   bands (ev):

   -13.3300 -13.0521  -7.7217  -7.3866  -0.3712  -0.0779   0.2298   1.1658
     1.2075   1.3140   1.4819   2.6994   3.2991   3.5559   4.6034   4.9760
     5.3070   5.6430   8.4296   9.6895  10.7367  11.0471  11.8372  12.1453
    12.6039

          k = 0.2117 0.0000 0.0000 (  6749 PWs)   bands (ev):

   -13.3559 -13.0781  -7.7966  -7.4621  -0.3743  -0.0683   0.3517   1.1397
     1.2336   1.2670   1.5079   2.7647   3.5087   3.7644   4.5432   5.0519
     5.3834   5.6471   8.2686   9.6401  10.9295  11.2506  11.9422  12.3276
    12.7422

          k = 0.1924 0.0000 0.0000 (  6753 PWs)   bands (ev):

   -13.3804 -13.1026  -7.8661  -7.5321  -0.4128  -0.0392   0.4830   1.1088
     1.2440   1.2587   1.5331   2.7876   3.7160   3.9804   4.5190   5.1267
     5.4588   5.6481   8.1097   9.5674  11.1098  11.4526  12.0602  12.5121
    12.8657

          k = 0.1732 0.0000 0.0000 (  6755 PWs)   bands (ev):

   -13.4032 -13.1256  -7.9299  -7.5964  -0.4654  -0.0074   0.6164   1.0702
     1.2499   1.2826   1.5569   2.7869   3.8772   4.1788   4.5752   5.1994
     5.5320   5.6462   7.9560   9.4830  11.2620  11.6538  12.1931  12.6827
    12.9577

          k = 0.1539 0.0000 0.0000 (  6755 PWs)   bands (ev):

   -13.4243 -13.1467  -7.9877  -7.6546  -0.5204   0.0175   0.7482   1.0294
     1.2795   1.3049   1.5791   2.7735   3.9356   4.3807   4.7309   5.2688
     5.6020   5.6416   7.8099   9.3946  11.3790  11.8529  12.3354  12.7934
    13.0250

          k = 0.1347 0.0000 0.0000 (  6757 PWs)   bands (ev):

   -13.4433 -13.1658  -8.0393  -7.7064  -0.5727   0.0332   0.8730   0.9932
     1.3253   1.3259   1.5995   2.7527   3.9149   4.5995   4.9368   5.3339
     5.6346   5.6676   7.6740   9.3076  11.4639  12.0403  12.4716  12.7923
    13.0842

          k = 0.1155 0.0000 0.0000 (  6763 PWs)   bands (ev):

   -13.4602 -13.1828  -8.0843  -7.7518  -0.6199   0.0407   0.9373   1.0143
     1.3436   1.3834   1.6178   2.7273   3.8634   4.8185   5.1516   5.3935
     5.6259   5.7277   7.5503   9.2257  11.5240  12.1875  12.5686  12.7436
    13.0889

          k = 0.0962 0.0000 0.0000 (  6747 PWs)   bands (ev):

   -13.4747 -13.1973  -8.1227  -7.7904  -0.6608   0.0423   0.9138   1.1176
     1.3595   1.4469   1.6337   2.6991   3.8037   5.0243   5.3561   5.4464
     5.6161   5.7810   7.4410   9.1519  11.5658  12.2326  12.5914  12.7425
    13.0951

          k = 0.0770 0.0000 0.0000 (  6745 PWs)   bands (ev):

   -13.4867 -13.2094  -8.1543  -7.8222  -0.6949   0.0402   0.8889   1.2132
     1.3729   1.5115   1.6470   2.6697   3.7460   5.2076   5.4915   5.5388
     5.6066   5.8265   7.3479   9.0884  11.5937  12.1632  12.5386  12.8182
    13.1631

          k = 0.0577 0.0000 0.0000 (  6741 PWs)   bands (ev):

   -13.4962 -13.2189  -8.1790  -7.8470  -0.7217   0.0366   0.8687   1.2917
     1.3834   1.5724   1.6576   2.6410   3.6960   5.3605   5.5277   5.5952
     5.6944   5.8631   7.2726   9.0371  11.6109  12.0580  12.4440  12.9312
    13.2055

          k = 0.0385 0.0000 0.0000 (  6735 PWs)   bands (ev):

   -13.5030 -13.2258  -8.1967  -7.8648  -0.7410   0.0329   0.8540   1.3494
     1.3911   1.6235   1.6653   2.6161   3.6576   5.4760   5.5543   5.5878
     5.8107   5.8899   7.2170   8.9994  11.6199  11.9650  12.3576  13.0322
    13.1647

          k = 0.0192 0.0000 0.0000 (  6773 PWs)   bands (ev):

   -13.5072 -13.2299  -8.2073  -7.8756  -0.7527   0.0304   0.8450   1.3844
     1.3957   1.6580   1.6699   2.5988   3.6334   5.5481   5.5706   5.5827
     5.8837   5.9063   7.1827   8.9764  11.6234  11.9036  12.3005  13.0997
    13.1392

          k = 0.0000 0.0000 0.0000 (  6803 PWs)   bands (ev):

   -13.5085 -13.2313  -8.2109  -7.8791  -0.7566   0.0294   0.8421   1.3961
     1.3972   1.6703   1.6714   2.5925   3.6252   5.5729   5.5760   5.5807
     5.9086   5.9118   7.1711   8.9686  11.6241  11.8824  12.2807  13.1234
    13.1304

     Writing all to output data dir ./work/Al2SO.save/
 
     init_run     :      4.69s CPU      4.75s WALL (       1 calls)
     electrons    :     71.03s CPU     92.70s WALL (       1 calls)

     Called by init_run:
     wfcinit      :      0.00s CPU      0.00s WALL (       1 calls)
     potinit      :      4.54s CPU      4.57s WALL (       1 calls)
     hinit0       :      0.11s CPU      0.12s WALL (       1 calls)

     Called by electrons:
     c_bands      :     71.03s CPU     92.70s WALL (       1 calls)
     v_of_rho     :      4.45s CPU      4.47s WALL (       1 calls)
     newd         :      0.03s CPU      0.04s WALL (       1 calls)
     PAW_pot      :      0.09s CPU      0.10s WALL (       1 calls)
     vdW_kernel   :      4.42s CPU      4.43s WALL (       1 calls)

     Called by c_bands:
     init_us_2    :      0.03s CPU      0.03s WALL (      91 calls)
     init_us_2:cp :      0.03s CPU      0.03s WALL (      91 calls)
     cegterg      :     69.22s CPU     90.31s WALL (     488 calls)

     Called by *egterg:
     cdiaghg      :      5.03s CPU      5.66s WALL (    9454 calls)
     h_psi        :     50.62s CPU     69.83s WALL (    9942 calls)
     s_psi        :      3.24s CPU      3.74s WALL (    9942 calls)
     g_psi        :      0.12s CPU      0.13s WALL (    9363 calls)

     Called by h_psi:
     h_psi:calbec :      5.54s CPU      7.43s WALL (    9942 calls)
     vloc_psi     :     39.90s CPU     56.11s WALL (    9942 calls)
     add_vuspsi   :      4.99s CPU      6.08s WALL (    9942 calls)

     General routines
     calbec       :      5.52s CPU      7.41s WALL (    9942 calls)
     fft          :      0.02s CPU      0.03s WALL (      62 calls)
     fftw         :     38.29s CPU     53.94s WALL (  224512 calls)
     davcio       :      0.02s CPU      0.02s WALL (     182 calls)
 
     Parallel routines
 
     PWSCF        :   1m16.24s CPU   1m38.43s WALL

 
   This run was terminated on:  14:24:42  12Jun2023            

=------------------------------------------------------------------------------=
   JOB DONE.
=------------------------------------------------------------------------------=
