
     Program PWSCF v.7.1 starts on 19Jun2023 at 10:37: 1 

     This program is part of the open-source Quantum ESPRESSO suite
     for quantum simulation of materials; please cite
         "P. Giannozzi et al., J. Phys.:Condens. Matter 21 395502 (2009);
         "P. Giannozzi et al., J. Phys.:Condens. Matter 29 465901 (2017);
         "P. Giannozzi et al., J. Chem. Phys. 152 154105 (2020);
          URL http://www.quantum-espresso.org", 
     in publications or presentations arising from this work. More details at
     http://www.quantum-espresso.org/quote

     Parallel version (MPI), running on    16 processors

     MPI processes distributed on     1 nodes
     49181 MiB available memory on the printing compute node when the environment starts
 
     Waiting for input...
     Reading input from standard input

     Current dimensions of program PWSCF are:
     Max number of different atomic species (ntypx) = 10
     Max number of k-points (npk) =  40000
     Max angular momentum in pseudopotentials (lmaxx) =  4
     Message from routine volume:
     axis vectors are left-handed

     Atomic positions and unit cell read from directory:
     ./work/Al2O2.save/
     Atomic positions from file used, from input discarded
 
     Message from routine volume:
     axis vectors are left-handed
     file Al.pbe-n-kjpaw_psl.1.0.0.UPF: wavefunction(s)  3S 3P renormalized
     file O.pbe-n-kjpaw_psl.1.0.0.UPF: wavefunction(s)  2S 2P renormalized
     Message from routine setup:
     using ibrav=0 with symmetry is DISCOURAGED, use correct ibrav instead
 
     R & G space division:  proc/nbgrp/npool/nimage =      16
     Subspace diagonalization in iterative solution of the eigenvalue problem:
     a serial algorithm will be used

 
     Parallelization info
     --------------------
     sticks:   dense  smooth     PW     G-vecs:    dense   smooth      PW
     Min          39      39     11                 2505     2505     399
     Max          40      40     12                 2508     2508     408
     Sum         625     625    187                40097    40097    6483
 
     Using Slab Decomposition
 


     bravais-lattice index     =            0
     lattice parameter (alat)  =       6.1344  a.u.
     unit-cell volume          =     640.3079 (a.u.)^3
     number of atoms/cell      =            8
     number of atomic types    =            2
     number of electrons       =        36.00
     number of Kohn-Sham states=           70
     kinetic-energy cutoff     =      60.0000  Ry
     charge density cutoff     =     240.0000  Ry
     Exchange-correlation= SLA  PW   PBX  PBC
                           (   1   4   3   4   0   0   0)

     celldm(1)=   6.134387  celldm(2)=   0.000000  celldm(3)=   0.000000
     celldm(4)=   0.000000  celldm(5)=   0.000000  celldm(6)=   0.000000

     crystal axes: (cart. coord. in units of alat)
               a(1) = (   0.865734   0.500504   0.000000 )  
               a(2) = (   0.865734  -0.500504   0.000000 )  
               a(3) = (   0.000000   0.000000   3.200761 )  

     reciprocal axes: (cart. coord. in units 2 pi/alat)
               b(1) = (  0.577544  0.998993  0.000000 )  
               b(2) = (  0.577544 -0.998993  0.000000 )  
               b(3) = (  0.000000  0.000000  0.312426 )  


     PseudoPot. # 1 for Al read from file:
     /home/mainadmin/research/danu/pseudo/Al.pbe-n-kjpaw_psl.1.0.0.UPF
     MD5 check sum: 502b6b27b9c6270cab5dd1084b96fa6d
     Pseudo is Projector augmented-wave + core cor, Zval =  3.0
     Generated using &quot;atomic&quot; code by A. Dal Corso  v.6.3
     Shape of augmentation charge: PSQ
     Using radial grid of 1135 points,  6 beta functions with: 
                l(1) =   0
                l(2) =   0
                l(3) =   1
                l(4) =   1
                l(5) =   2
                l(6) =   2
     Q(r) pseudized with 0 coefficients 


     PseudoPot. # 2 for O  read from file:
     /home/mainadmin/research/danu/pseudo/O.pbe-n-kjpaw_psl.1.0.0.UPF
     MD5 check sum: e99d9cef9b487d1ca56f5b95ecd0fd7a
     Pseudo is Projector augmented-wave + core cor, Zval =  6.0
     Generated using &quot;atomic&quot; code by A. Dal Corso  v.6.3
     Shape of augmentation charge: PSQ
     Using radial grid of 1095 points,  4 beta functions with: 
                l(1) =   0
                l(2) =   0
                l(3) =   1
                l(4) =   1
     Q(r) pseudized with 0 coefficients 


     atomic species   valence    mass     pseudopotential
        Al             3.00    26.98100     Al( 1.00)
        O              6.00    15.99900     O ( 1.00)

      2 Sym. Ops. (no inversion) found



   Cartesian axes

     site n.     atom                  positions (alat units)
         1           O   tau(   1) = (   1.1543123   0.0000000   0.0000000  )
         2           Al  tau(   2) = (   0.5771561   0.0000000   0.1407984  )
         3           Al  tau(   3) = (   0.5771561   0.0000000   0.9489569  )
         4           O   tau(   4) = (   1.1543123   0.0000000   1.0899025  )
         5           O   tau(   5) = (   0.5771561   0.0000000   1.6003698  )
         6           Al  tau(   6) = (   1.1543123   0.0000000   1.7415418  )
         7           Al  tau(   7) = (   1.1543123   0.0000000   2.5493344  )
         8           O   tau(   8) = (   0.5771561   0.0000000   2.6902707  )

     number of k points=    91
                       cart. coord. in units 2pi/alat
        k(    1) = (   0.0000000   0.0000000   0.0000000), wk =   0.0219780
        k(    2) = (   0.0192515   0.0110848   0.0000000), wk =   0.0219780
        k(    3) = (   0.0385030   0.0221697   0.0000000), wk =   0.0219780
        k(    4) = (   0.0577544   0.0332545   0.0000000), wk =   0.0219780
        k(    5) = (   0.0770059   0.0443393   0.0000000), wk =   0.0219780
        k(    6) = (   0.0962574   0.0554241   0.0000000), wk =   0.0219780
        k(    7) = (   0.1155089   0.0665090   0.0000000), wk =   0.0219780
        k(    8) = (   0.1347604   0.0775938   0.0000000), wk =   0.0219780
        k(    9) = (   0.1540119   0.0886786   0.0000000), wk =   0.0219780
        k(   10) = (   0.1732633   0.0997634   0.0000000), wk =   0.0219780
        k(   11) = (   0.1925148   0.1108483   0.0000000), wk =   0.0219780
        k(   12) = (   0.2117663   0.1219331   0.0000000), wk =   0.0219780
        k(   13) = (   0.2310178   0.1330179   0.0000000), wk =   0.0219780
        k(   14) = (   0.2502693   0.1441027   0.0000000), wk =   0.0219780
        k(   15) = (   0.2695208   0.1551876   0.0000000), wk =   0.0219780
        k(   16) = (   0.2887722   0.1662724   0.0000000), wk =   0.0219780
        k(   17) = (   0.3080237   0.1773572   0.0000000), wk =   0.0219780
        k(   18) = (   0.3272752   0.1884420   0.0000000), wk =   0.0219780
        k(   19) = (   0.3465267   0.1995269   0.0000000), wk =   0.0219780
        k(   20) = (   0.3657782   0.2106117   0.0000000), wk =   0.0219780
        k(   21) = (   0.3850296   0.2216965   0.0000000), wk =   0.0219780
        k(   22) = (   0.4042811   0.2327813   0.0000000), wk =   0.0219780
        k(   23) = (   0.4235326   0.2438662   0.0000000), wk =   0.0219780
        k(   24) = (   0.4427841   0.2549510   0.0000000), wk =   0.0219780
        k(   25) = (   0.4620356   0.2660358   0.0000000), wk =   0.0219780
        k(   26) = (   0.4812871   0.2771206   0.0000000), wk =   0.0219780
        k(   27) = (   0.5005385   0.2882055   0.0000000), wk =   0.0219780
        k(   28) = (   0.5197900   0.2992903   0.0000000), wk =   0.0219780
        k(   29) = (   0.5390415   0.3103751   0.0000000), wk =   0.0219780
        k(   30) = (   0.5582930   0.3214599   0.0000000), wk =   0.0219780
        k(   31) = (   0.5775445   0.3325448   0.0000000), wk =   0.0219780
        k(   32) = (   0.5775445   0.3214599   0.0000000), wk =   0.0219780
        k(   33) = (   0.5775445   0.3103751   0.0000000), wk =   0.0219780
        k(   34) = (   0.5775445   0.2992903   0.0000000), wk =   0.0219780
        k(   35) = (   0.5775445   0.2882055   0.0000000), wk =   0.0219780
        k(   36) = (   0.5775445   0.2771206   0.0000000), wk =   0.0219780
        k(   37) = (   0.5775445   0.2660358   0.0000000), wk =   0.0219780
        k(   38) = (   0.5775445   0.2549510   0.0000000), wk =   0.0219780
        k(   39) = (   0.5775445   0.2438662   0.0000000), wk =   0.0219780
        k(   40) = (   0.5775445   0.2327813   0.0000000), wk =   0.0219780
        k(   41) = (   0.5775445   0.2216965   0.0000000), wk =   0.0219780
        k(   42) = (   0.5775445   0.2106117   0.0000000), wk =   0.0219780
        k(   43) = (   0.5775445   0.1995269   0.0000000), wk =   0.0219780
        k(   44) = (   0.5775445   0.1884420   0.0000000), wk =   0.0219780
        k(   45) = (   0.5775445   0.1773572   0.0000000), wk =   0.0219780
        k(   46) = (   0.5775445   0.1662724   0.0000000), wk =   0.0219780
        k(   47) = (   0.5775445   0.1551876   0.0000000), wk =   0.0219780
        k(   48) = (   0.5775445   0.1441027   0.0000000), wk =   0.0219780
        k(   49) = (   0.5775445   0.1330179   0.0000000), wk =   0.0219780
        k(   50) = (   0.5775445   0.1219331   0.0000000), wk =   0.0219780
        k(   51) = (   0.5775445   0.1108483   0.0000000), wk =   0.0219780
        k(   52) = (   0.5775445   0.0997634   0.0000000), wk =   0.0219780
        k(   53) = (   0.5775445   0.0886786   0.0000000), wk =   0.0219780
        k(   54) = (   0.5775445   0.0775938   0.0000000), wk =   0.0219780
        k(   55) = (   0.5775445   0.0665090   0.0000000), wk =   0.0219780
        k(   56) = (   0.5775445   0.0554241   0.0000000), wk =   0.0219780
        k(   57) = (   0.5775445   0.0443393   0.0000000), wk =   0.0219780
        k(   58) = (   0.5775445   0.0332545   0.0000000), wk =   0.0219780
        k(   59) = (   0.5775445   0.0221697   0.0000000), wk =   0.0219780
        k(   60) = (   0.5775445   0.0110848   0.0000000), wk =   0.0219780
        k(   61) = (   0.5775445   0.0000000   0.0000000), wk =   0.0219780
        k(   62) = (   0.5582930   0.0000000   0.0000000), wk =   0.0219780
        k(   63) = (   0.5390415   0.0000000   0.0000000), wk =   0.0219780
        k(   64) = (   0.5197900   0.0000000   0.0000000), wk =   0.0219780
        k(   65) = (   0.5005385   0.0000000   0.0000000), wk =   0.0219780
        k(   66) = (   0.4812871   0.0000000   0.0000000), wk =   0.0219780
        k(   67) = (   0.4620356   0.0000000   0.0000000), wk =   0.0219780
        k(   68) = (   0.4427841   0.0000000   0.0000000), wk =   0.0219780
        k(   69) = (   0.4235326   0.0000000   0.0000000), wk =   0.0219780
        k(   70) = (   0.4042811   0.0000000   0.0000000), wk =   0.0219780
        k(   71) = (   0.3850296   0.0000000   0.0000000), wk =   0.0219780
        k(   72) = (   0.3657782   0.0000000   0.0000000), wk =   0.0219780
        k(   73) = (   0.3465267   0.0000000   0.0000000), wk =   0.0219780
        k(   74) = (   0.3272752   0.0000000   0.0000000), wk =   0.0219780
        k(   75) = (   0.3080237   0.0000000   0.0000000), wk =   0.0219780
        k(   76) = (   0.2887722   0.0000000   0.0000000), wk =   0.0219780
        k(   77) = (   0.2695208   0.0000000   0.0000000), wk =   0.0219780
        k(   78) = (   0.2502693   0.0000000   0.0000000), wk =   0.0219780
        k(   79) = (   0.2310178   0.0000000   0.0000000), wk =   0.0219780
        k(   80) = (   0.2117663   0.0000000   0.0000000), wk =   0.0219780
        k(   81) = (   0.1925148   0.0000000   0.0000000), wk =   0.0219780
        k(   82) = (   0.1732633   0.0000000   0.0000000), wk =   0.0219780
        k(   83) = (   0.1540119   0.0000000   0.0000000), wk =   0.0219780
        k(   84) = (   0.1347604   0.0000000   0.0000000), wk =   0.0219780
        k(   85) = (   0.1155089   0.0000000   0.0000000), wk =   0.0219780
        k(   86) = (   0.0962574   0.0000000   0.0000000), wk =   0.0219780
        k(   87) = (   0.0770059   0.0000000   0.0000000), wk =   0.0219780
        k(   88) = (   0.0577544   0.0000000   0.0000000), wk =   0.0219780
        k(   89) = (   0.0385030   0.0000000   0.0000000), wk =   0.0219780
        k(   90) = (   0.0192515   0.0000000   0.0000000), wk =   0.0219780
        k(   91) = (   0.0000000   0.0000000   0.0000000), wk =   0.0219780

     Dense  grid:    40097 G-vectors     FFT dimensions: (  32,  32, 100)

     Estimated max dynamical RAM per process >      11.50 MB

     Estimated total dynamical RAM >     183.94 MB

     Check: negative core charge=   -0.000006

     The potential is recalculated from file :
     ./work/Al2O2.save/charge-density

     Starting wfcs are   32 randomized atomic wfcs +   38 random wfcs
     Checking if some PAW data can be deallocated... 

     Band Structure Calculation
     Davidson diagonalization with overlap
     c_bands:  1 eigenvalues not converged
     c_bands:  1 eigenvalues not converged
     c_bands:  1 eigenvalues not converged
     c_bands:  1 eigenvalues not converged
     c_bands:  1 eigenvalues not converged
     c_bands:  1 eigenvalues not converged
     c_bands:  1 eigenvalues not converged

     ethr =  2.78E-11,  avg # of iterations = 66.8

     total cpu time spent up to now is      175.0 secs

     End of band structure calculation

          k = 0.0000 0.0000 0.0000 (  5043 PWs)   bands (ev):

   -13.4650 -13.4021 -11.6704 -11.5700   0.1989   1.1656   1.4099   2.0959
     2.0989   2.1384   2.1413   3.1666   3.1709   3.1748   3.2277   3.2315
     4.8386   7.0428   8.7965  11.2934  12.2875  12.9153  15.3355  15.3561
    16.2810  16.3023  16.5203  16.5413  17.6399  17.9444  17.9669  18.1833
    19.7782  20.0235  20.0427  20.4779  21.2303  21.2495  22.7822  22.8083
    23.1930  23.4849  24.6397  24.6547  24.8676  24.8945  25.3063  25.7553
    25.9675  26.7713  26.7956  27.4567  27.4786  28.3132  28.8880  28.9211
    29.3820  30.5795  32.9814  33.0093  33.7004  34.2491  34.5531  34.5932
    36.7044  36.7371  37.0384  37.1099  37.1341  37.9044

          k = 0.0193 0.0111 0.0000 (  5057 PWs)   bands (ev):

   -13.4622 -13.3993 -11.6699 -11.5697   0.2032   1.1447   1.4096   2.0924
     2.1102   2.1170   2.1352   3.1446   3.1722   3.1879   3.2197   3.2306
     4.8664   7.0403   8.8152  11.2984  12.2878  12.9245  15.3284  15.3495
    16.2449  16.2913  16.5038  16.5378  17.6000  17.9568  17.9951  18.1949
    19.8181  20.0004  20.0196  20.4793  21.1738  21.2358  22.8138  22.8361
    23.2163  23.5546  24.6106  24.6245  24.8609  24.8965  25.3532  25.7831
    25.9921  26.7632  26.7857  27.4729  27.5028  28.3488  28.8910  28.9199
    29.3917  30.6056  32.9132  32.9865  33.7210  34.3399  34.5437  34.5796
    36.6935  36.7237  37.0298  37.0661  37.0943  37.8525

          k = 0.0385 0.0222 0.0000 (  5057 PWs)   bands (ev):

   -13.4538 -13.3911 -11.6683 -11.5686   0.2160   1.0866   1.4088   2.0317
     2.0799   2.1230   2.1647   3.0636   3.1730   3.1892   3.2175   3.2623
     4.9441   7.0329   8.8705  11.3132  12.2883  12.9518  15.2817  15.3563
    16.1059  16.2977  16.4212  16.5644  17.5083  17.9854  18.0613  18.2255
    19.8377  19.9300  20.0437  20.4912  20.9913  21.2319  22.8883  22.9365
    23.2852  23.7322  24.5265  24.5400  24.8014  24.9490  25.4898  25.8630
    26.0662  26.7369  26.7579  27.4873  27.6077  28.4514  28.8862  28.9297
    29.4211  30.6800  32.7043  32.9739  33.7829  34.5065  34.5379  34.5719
    36.6567  36.6864  36.9466  36.9967  36.9994  37.7458

          k = 0.0578 0.0333 0.0000 (  5057 PWs)   bands (ev):

   -13.4398 -13.3774 -11.6658 -11.5670   0.2372   1.0009   1.4065   1.9170
     2.0576   2.1023   2.2350   2.9451   3.1423   3.1741   3.2179   3.3462
     5.0588   7.0207   8.9603  11.3378  12.2874  12.9966  15.2060  15.3669
    15.9030  16.2933  16.3058  16.6099  17.3957  18.0299  18.1361  18.2664
    19.7181  19.7965  20.2372  20.5212  20.7491  21.2238  23.0065  23.0960
    23.3957  23.9573  24.3981  24.4134  24.7107  25.0486  25.7061  25.9869
    26.1907  26.6891  26.7182  27.5130  27.7727  28.6103  28.8659  28.9578
    29.4713  30.7923  32.4406  32.9549  33.8872  34.4355  34.5057  34.8456
    36.5889  36.6247  36.7748  36.8883  36.9300  37.6850

          k = 0.0770 0.0443 0.0000 (  5063 PWs)   bands (ev):

   -13.4205 -13.3584 -11.6625 -11.5649   0.2667   0.8971   1.4015   1.7810
     2.0233   2.0724   2.3182   2.8048   3.0837   3.1753   3.2140   3.4441
     5.1972   7.0039   9.0813  11.3719  12.2828  13.0575  15.1128  15.3516
    15.6860  16.1345  16.3097  16.6686  17.2783  18.0895  18.2089  18.3082
    19.5553  19.6093  20.4514  20.4892  20.6108  21.2129  23.1719  23.2910
    23.5411  24.1803  24.2312  24.2634  24.6071  25.1995  25.9888  26.1460
    26.3666  26.6270  26.6687  27.5537  27.9813  28.8123  28.8402  28.9947
    29.5438  30.9276  32.1581  32.9281  34.0348  34.3326  34.4612  35.1472
    36.4935  36.5248  36.5737  36.7863  36.8429  37.6914

          k = 0.0963 0.0554 0.0000 (  5053 PWs)   bands (ev):

   -13.3957 -13.3342 -11.6584 -11.5625   0.3039   0.7823   1.3919   1.6330
     1.9733   2.0326   2.4078   2.6574   3.0197   3.1764   3.2078   3.5447
     5.3494   6.9830   9.2294  11.4154  12.2714  13.1328  15.0110  15.2122
    15.5698  15.9563  16.3049  16.7278  17.1731  18.1611  18.2766  18.3460
    19.3696  19.3914  20.2055  20.6790  20.7411  21.2170  23.3803  23.5037
    23.7116  24.0315  24.1059  24.3756  24.5080  25.3998  26.3247  26.3275
    26.5672  26.5943  26.6126  27.6074  28.2189  28.8178  29.0357  29.0444
    29.6392  31.0702  31.8724  32.8931  34.2073  34.2264  34.4100  35.4417
    36.3612  36.3619  36.3957  36.7158  36.7616  37.7510

          k = 0.1155 0.0665 0.0000 (  5045 PWs)   bands (ev):

   -13.3659 -13.3049 -11.6539 -11.5598   0.3485   0.6614   1.3748   1.4791
     1.9020   1.9834   2.4995   2.5161   2.9567   3.1772   3.1995   3.6424
     5.5086   6.9586   9.4005  11.4680  12.2498  13.2192  14.9076  14.9487
    15.5667  15.7677  16.2875  16.7509  17.1188  18.2346  18.3386  18.3837
    19.1105  19.2197  19.9812  20.7724  20.9011  21.3071  23.6248  23.7156
    23.8068  23.8948  23.9492  24.4349  24.5425  25.6337  26.4611  26.5307
    26.6071  26.7015  26.8724  27.6707  28.4714  28.8107  29.0776  29.2957
    29.7562  31.2048  31.5914  32.8501  34.0675  34.3549  34.4605  35.6901
    36.1518  36.1870  36.2688  36.6907  36.7139  37.8436

          k = 0.1348 0.0776 0.0000 (  5043 PWs)   bands (ev):

   -13.3310 -13.2707 -11.6492 -11.5572   0.3996   0.5381   1.3235   1.3467
     1.8042   1.9262   2.3914   2.5901   2.9004   3.1779   3.1888   3.7337
     5.6703   6.9313   9.5905  11.5294  12.2147  13.3111  14.6551  14.8093
    15.5756  15.5901  16.2547  16.6951  17.1593  18.2831  18.3955  18.4447
    18.8249  19.0693  19.7994  20.8780  20.9142  21.5246  23.5673  23.7991
    23.8893  23.8972  24.0713  24.4285  24.6937  25.8797  26.4097  26.5354
    26.7783  27.1080  27.1974  27.7403  28.7103  28.8511  29.1184  29.5576
    29.8891  31.3192  31.3196  32.8008  33.9230  34.2999  34.7326  35.8379
    35.9589  36.0011  36.1427  36.6242  36.8346  37.9535

          k = 0.1540 0.0887 0.0000 (  5035 PWs)   bands (ev):

   -13.2914 -13.2319 -11.6445 -11.5549   0.4147   0.4565   1.1694   1.3032
     1.6792   1.8644   2.2888   2.6761   2.8554   3.1738   3.1808   3.8168
     5.8319   6.9021   9.7956  11.5993  12.1637  13.3954  14.3729  14.7170
    15.3854  15.6132  16.2053  16.5862  17.2685  18.2883  18.4487  18.5294
    18.5441  18.9437  19.6664  20.8611  20.9938  21.7797  23.3163  23.6607
    23.9762  24.1767  24.2253  24.5484  24.8452  26.1225  26.3161  26.5998
    26.9655  27.5331  27.5641  27.8136  28.8441  29.0397  29.1568  29.8234
    30.0245  31.0601  31.4039  32.7492  33.7863  34.2496  35.0298  35.7943
    35.8223  35.8749  36.0293  36.5578  37.0895  38.0678

          k = 0.1733 0.0998 0.0000 (  5031 PWs)   bands (ev):

   -13.2473 -13.1886 -11.6401 -11.5531   0.2940   0.5168   1.0191   1.2406
     1.5333   1.8021   2.2060   2.7536   2.8242   3.1572   3.1852   3.8904
     5.9913   6.8723  10.0122  11.6776  12.0956  13.4354  14.1456  14.6311
    15.2013  15.6257  16.1399  16.4595  17.4105  18.2357  18.2636  18.4993
    18.6668  18.8482  19.5836  20.7862  21.1174  22.0264  23.0590  23.5371
    23.9842  24.3428  24.4495  24.7824  25.0125  26.2108  26.3569  26.7378
    27.1163  27.8889  27.9583  27.9739  28.9740  29.1918  29.2881  30.0879
    30.1392  30.8160  31.4533  32.7024  33.6756  34.2095  35.3133  35.6613
    35.6711  35.8483  35.9666  36.4898  37.4302  38.1749

          k = 0.1925 0.1108 0.0000 (  5035 PWs)   bands (ev):

   -13.1991 -13.1413 -11.6364 -11.5522   0.1775   0.5778   0.8744   1.1577
     1.3772   1.7424   2.1372   2.8076   2.8168   3.1364   3.1974   3.9541
     6.1475   6.8430  10.2373  11.7640  12.0107  13.3557  14.0522  14.5486
    15.0265  15.6213  16.0613  16.3282  17.5699  17.9539  18.2186  18.5487
    18.7852  18.8011  19.5492  20.7050  21.2486  22.2524  22.7995  23.4305
    23.9682  24.4204  24.6909  25.0752  25.2069  26.1002  26.5877  26.9496
    27.2113  27.9655  28.3841  28.4082  29.1713  29.2252  29.5292  30.2013
    30.3423  30.5961  31.4654  32.6640  33.6187  34.1855  35.4701  35.5274
    35.5992  35.7997  36.0631  36.4202  37.8142  38.2657

          k = 0.2118 0.1219 0.0000 (  5039 PWs)   bands (ev):

   -13.1470 -13.0902 -11.6336 -11.5524   0.0670   0.6332   0.7371   1.0564
     1.2230   1.6858   2.0779   2.8055   2.8586   3.1113   3.2224   4.0078
     6.2996   6.8160  10.4682  11.8584  11.9105  13.1488  14.1014  14.4645
    14.8638  15.5964  15.9724  16.1975  17.6934  17.7387  18.1578  18.5985
    18.7533  18.9403  19.5595  20.6281  21.3869  22.4562  22.5415  23.3424
    23.9493  24.4649  24.8906  25.3978  25.4235  25.9889  26.8262  27.2203
    27.2480  28.0448  28.8220  28.8369  29.2526  29.4432  29.7530  30.1834
    30.3531  30.6337  31.4418  32.6236  33.6553  34.1844  35.4169  35.4707
    35.5867  35.7487  36.3472  36.3534  38.2154  38.3344

          k = 0.2310 0.1330 0.0000 (  5041 PWs)   bands (ev):

   -13.0914 -13.0357 -11.6322 -11.5541  -0.0362   0.6086   0.6677   0.9412
     1.0892   1.6305   2.0261   2.8171   2.8747   3.0816   3.2631   4.0518
     6.4473   6.7929  10.7024  11.7975  11.9607  12.8899  14.2183  14.3738
    14.7154  15.5506  15.8755  16.0697  17.4637  17.9107  18.0840  18.6501
    18.7470  19.0784  19.6090  20.5657  21.5319  22.2890  22.6402  23.2735
    23.9317  24.4888  25.0574  25.6323  25.7395  25.8819  27.0860  27.2359
    27.5187  28.1371  29.2432  29.2687  29.2832  29.7593  29.9632  30.0770
    30.1666  30.8859  31.3888  32.5623  33.8162  34.2131  35.3461  35.4172
    35.6375  35.7053  36.2789  36.7049  38.3256  38.3801

          k = 0.2503 0.1441 0.0000 (  5047 PWs)   bands (ev):

   -13.0328 -12.9782 -11.6325 -11.5574  -0.1308   0.4899   0.6486   0.8175
     1.0087   1.5740   1.9824   2.8410   2.8669   3.0470   3.3162   4.0864
     6.5901   6.7755  10.9378  11.6742  12.0708  12.6196  14.2727  14.3607
    14.5831  15.4870  15.7700  15.9460  17.2742  17.9998  18.0801  18.7045
    18.7565  19.2086  19.6912  20.5280  21.6831  22.0459  22.8088  23.2239
    23.9146  24.5038  25.2039  25.7844  25.8132  26.0845  27.1888  27.3735
    27.7790  28.2825  29.3197  29.6108  29.7009  29.9149  29.9932  30.0306
    30.2300  31.1476  31.3166  32.4782  34.0952  34.2781  35.3080  35.3659
    35.6751  35.7508  36.2118  37.0601  38.2231  38.4055

          k = 0.2695 0.1552 0.0000 (  5045 PWs)   bands (ev):

   -12.9716 -12.9181 -11.6347 -11.5628  -0.2156   0.3820   0.5592   0.6902
     0.9958   1.5144   1.9500   2.8403   2.8759   3.0073   3.3752   4.1124
     6.7275   6.7662  11.1722  11.5432  12.1886  12.3523  14.1608  14.4685
    14.5091  15.4135  15.6533  15.8274  17.1328  17.9078  18.2414  18.7622
    18.7706  19.3226  19.7992  20.5236  21.8175  21.8398  22.9660  23.1936
    23.8967  24.5194  25.3372  25.7016  25.9556  26.4252  27.1179  27.6813
    27.9161  28.5347  29.3747  29.5953  29.8308  30.0560  30.1217  30.1807
    30.6114  31.2398  31.4184  32.3863  34.3802  34.4595  35.2970  35.3277
    35.6627  35.9189  36.1539  37.3882  38.0820  38.4150

          k = 0.2888 0.1663 0.0000 (  5051 PWs)   bands (ev):

   -12.9081 -12.8558 -11.6393 -11.5704  -0.2897   0.2858   0.4342   0.5632
     1.0111   1.4502   1.9343   2.7995   2.9205   2.9623   3.4340   4.1305
     6.7655   6.8604  11.4033  11.4071  12.0939  12.3140  14.0394  14.3730
    14.6441  15.3475  15.5241  15.7141  17.0430  17.8106  18.3901  18.7792
    18.8218  19.4101  19.9259  20.5571  21.6100  22.0011  23.1151  23.1818
    23.8772  24.5420  25.4590  25.6387  26.0645  26.7531  27.0323  27.9430
    27.9861  28.8327  29.3339  29.4781  29.6949  30.2737  30.3975  30.5004
    31.0306  31.1761  31.7033  32.3046  34.5238  34.8537  35.2975  35.3042
    35.6734  36.1164  36.1266  37.6738  37.9306  38.4135

          k = 0.3080 0.1774 0.0000 (  5041 PWs)   bands (ev):

   -12.8430 -12.7919 -11.6463 -11.5805  -0.3523   0.2019   0.3019   0.4397
     1.0209   1.3808   1.9412   2.7476   2.9123   2.9732   3.4885   4.1414
     6.7766   6.9871  11.2667  11.6301  11.8476  12.4469  13.9120  14.2979
    14.7291  15.3262  15.3846  15.6068  17.0021  17.7107  18.5244  18.7768
    18.8791  19.4597  20.0635  20.6269  21.4304  22.1661  23.1878  23.2578
    23.8575  24.5755  25.5682  25.5996  26.1501  26.9399  27.0619  27.9027
    28.2411  29.0643  29.0779  29.5784  29.6817  30.3290  30.7366  30.8366
    31.1449  31.4595  32.0062  32.2491  34.6857  35.2135  35.2865  35.2918
    35.7181  36.1168  36.3541  37.8353  37.9117  38.4047

          k = 0.3273 0.1884 0.0000 (  5033 PWs)   bands (ev):

   -12.7767 -12.7267 -11.6562 -11.5933  -0.4029   0.1308   0.1736   0.3224
     1.0106   1.3060   1.9747   2.6867   2.8574   3.0325   3.5355   4.1459
     6.8003   7.1080  11.1245  11.6153  11.8492  12.5871  13.7824  14.2446
    14.7222  15.2397  15.3939  15.5055  17.0028  17.6107  18.6448  18.7634
    18.9275  19.4606  20.2040  20.7240  21.2851  22.3336  23.2108  23.3932
    23.8425  24.6219  25.5857  25.6628  26.2225  26.8492  27.3474  27.8123
    28.3279  28.9486  29.2007  29.4837  29.9785  30.3541  31.0722  31.1231
    31.1690  31.8833  32.2320  32.3292  34.8213  35.2481  35.2759  35.4248
    35.8211  36.1703  36.6054  37.8862  38.1040  38.1717

          k = 0.3465 0.1995 0.0000 (  5021 PWs)   bands (ev):

   -12.7097 -12.6608 -11.6689 -11.6088  -0.4410   0.0537   0.0727   0.2131
     0.9764   1.2260   2.0346   2.6183   2.7982   3.0972   3.5731   4.1447
     6.8375   7.2226  10.9815  11.3986  12.0584  12.7341  13.6544  14.2143
    14.6358  15.0980  15.4107  15.5383  17.0357  17.5133  18.7425  18.7536
    18.9595  19.4068  20.3387  20.8341  21.1754  22.5027  23.2499  23.5150
    23.8439  24.6812  25.5937  25.7418  26.2892  26.7711  27.6079  27.6822
    28.1663  29.0239  29.2933  29.4124  30.2845  30.3560  31.2728  31.3578
    31.4099  32.2659  32.2892  32.6661  34.8660  35.1599  35.2594  35.3960
    36.0086  36.2775  36.9066  37.9451  38.1209  38.1231

          k = 0.3658 0.2106 0.0000 (  5021 PWs)   bands (ev):

   -12.6426 -12.5947 -11.6847 -11.6273  -0.4665  -0.0551   0.0277   0.1137
     0.9203   1.1411   2.1164   2.5441   2.7353   3.1658   3.5997   4.1383
     6.8885   7.3304  10.8390  11.1985  12.2551  12.8876  13.5309  14.2082
    14.5083  14.9653  15.3225  15.7231  17.0920  17.4209  18.7197  18.8472
    18.9745  19.3003  20.4577  20.9401  21.0957  22.6730  23.3042  23.6079
    23.8842  24.7517  25.6130  25.8071  26.3535  26.7214  27.5243  27.8423
    27.9165  29.1486  29.3662  29.3765  30.3395  30.5422  31.4716  31.5472
    31.7416  32.3580  32.6632  33.0046  34.7957  35.0291  35.1769  35.2251
    36.2629  36.4251  37.2082  37.8526  37.8748  38.3623

          k = 0.3850 0.2217 0.0000 (  5022 PWs)   bands (ev):

   -12.5758 -12.5290 -11.7036 -11.6486  -0.4793  -0.1514  -0.0044   0.0253
     0.8469   1.0520   2.2145   2.4653   2.6695   3.2372   3.6146   4.1274
     6.9530   7.4308  10.6985  11.0161  12.4364  13.0468  13.4144  14.2272
    14.3609  14.8468  15.2412  15.9276  17.1643  17.3360  18.6998  18.8853
    19.0113  19.1504  20.5508  21.0239  21.0338  22.8447  23.3733  23.6663
    23.9779  24.8297  25.6251  25.8641  26.4147  26.7206  27.3516  27.6624
    28.0548  29.2481  29.3465  29.4645  30.3136  30.7433  31.6964  31.7443
    32.0459  32.5160  32.9908  33.3049  34.6640  34.8613  34.8673  35.1569
    36.5235  36.5982  37.4113  37.6456  37.9953  38.3645

          k = 0.4043 0.2328 0.0000 (  5022 PWs)   bands (ev):

   -12.5099 -12.4640 -11.7255 -11.6727  -0.4798  -0.2340  -0.0511  -0.0238
     0.7604   0.9594   2.3235   2.3837   2.6020   3.3102   3.6175   4.1125
     7.0297   7.5228  10.5617  10.8524  12.5998  13.2106  13.3067  14.2034
    14.2714  14.7459  15.1672  16.1425  17.2468  17.2611  18.6876  18.8381
    18.9688  19.0998  20.6081  20.9768  21.0696  23.0191  23.4565  23.7159
    24.1073  24.9096  25.6111  25.9204  26.4688  26.7867  27.1770  27.4330
    28.2414  29.3165  29.3539  29.5644  30.2836  30.9159  31.8130  32.0420
    32.2927  32.7274  33.2578  33.4628  34.5469  34.6121  34.6603  35.0392
    36.7489  36.7871  37.4383  37.5291  38.2845  38.4005

          k = 0.4235 0.2439 0.0000 (  5010 PWs)   bands (ev):

   -12.4454 -12.4003 -11.7504 -11.6996  -0.4685  -0.3021  -0.1144  -0.0312
     0.6646   0.8640   2.3009   2.4389   2.5339   3.3836   3.6088   4.0940
     7.1166   7.6055  10.4305  10.7084  12.7435  13.2094  13.3774  14.0410
    14.3394  14.6644  15.1009  16.3620  17.1984  17.3343  18.6874  18.7448
    18.7671  19.2029  20.6219  20.9145  21.0664  23.1983  23.5534  23.7805
    24.2538  24.9840  25.5635  25.9825  26.5092  26.9225  27.0125  27.2388
    28.4021  29.3635  29.3868  29.6813  30.2563  31.0818  31.9032  32.3220
    32.4647  32.9237  33.3758  33.4541  34.3041  34.4294  34.7798  34.8649
    36.9380  36.9886  37.2917  37.5182  38.4858  38.5410

          k = 0.4428 0.2550 0.0000 (  4996 PWs)   bands (ev):

   -12.3827 -12.3384 -11.7782 -11.7290  -0.4463  -0.3552  -0.1642  -0.0276
     0.5623   0.7668   2.2188   2.4668   2.5570   3.4562   3.5890   4.0723
     7.2110   7.6777  10.3072  10.5849  12.8671  13.1238  13.5450  13.8772
    14.4279  14.6027  15.0429  16.5814  17.1503  17.4224  18.5534  18.6196
    18.7031  19.3113  20.5889  20.8409  21.0103  23.3844  23.6634  23.8680
    24.4092  25.0445  25.4889  26.0494  26.5272  26.8680  27.0931  27.1138
    28.5315  29.4008  29.4413  29.8191  30.2390  31.2501  31.9717  32.4941
    32.5559  33.0597  33.1433  33.5745  34.1752  34.2321  34.6418  35.1020
    37.0616  37.0964  37.2035  37.6118  38.5246  38.6249

          k = 0.4620 0.2660 0.0000 (  5004 PWs)   bands (ev):

   -12.3223 -12.2786 -11.8085 -11.7608  -0.4145  -0.3929  -0.2002  -0.0140
     0.4557   0.6687   2.1392   2.4022   2.6749   3.5270   3.5591   4.0476
     7.3095   7.7378  10.1944  10.4830  12.9715  13.0515  13.7103  13.7150
    14.5312  14.5599  14.9943  16.7956  17.1188  17.5067  18.3365  18.4691
    18.7394  19.4226  20.5119  20.7537  20.9046  23.5789  23.7861  23.9766
    24.5691  25.0827  25.3982  26.0986  26.5282  26.7511  27.0118  27.3384
    28.6189  29.4365  29.5127  29.9802  30.2406  31.4220  32.0213  32.2984
    32.7238  32.8975  33.2100  33.6055  33.9236  34.3059  34.3909  35.4744
    36.8507  37.2116  37.4314  37.7940  38.4877  38.8076

          k = 0.4813 0.2771 0.0000 (  5000 PWs)   bands (ev):

   -12.2646 -12.2213 -11.8411 -11.7947  -0.4151  -0.3744  -0.2224   0.0081
     0.3467   0.5708   2.0646   2.3418   2.7899   3.5206   3.5950   4.0203
     7.4082   7.7843  10.0947  10.4031  12.9941  13.0583  13.5574  13.8685
    14.5340  14.6417  14.9563  16.9985  17.1057  17.5826  18.1235  18.3013
    18.8013  19.5359  20.3997  20.6538  20.7570  23.7818  23.9208  24.1006
    24.7298  25.0923  25.3006  26.0693  26.5675  26.6654  26.9938  27.5725
    28.6460  29.4761  29.5977  30.1654  30.2715  31.5943  31.9598  32.0575
    32.7091  32.8087  33.3705  33.4644  33.7772  34.1421  34.4107  35.8445
    36.7294  37.2616  37.6684  38.0391  38.4407  39.0030

          k = 0.5005 0.2882 0.0000 (  4996 PWs)   bands (ev):

   -12.2099 -12.1669 -11.8757 -11.8304  -0.4218  -0.3284  -0.2314   0.0370
     0.2371   0.4747   1.9973   2.2877   2.8995   3.4745   3.6592   3.9909
     7.5031   7.8158  10.0107  10.3453  12.9530  13.1293  13.4077  14.0131
    14.5222  14.7500  14.9313  17.1123  17.1833  17.6447  17.9226  18.1246
    18.8943  19.6499  20.2662  20.5440  20.5772  23.9917  24.0671  24.2335
    24.8867  25.0709  25.2024  25.9345  26.6097  26.6837  27.0181  27.7922
    28.5904  29.5218  29.6985  30.3429  30.3725  31.5748  31.7604  32.0977
    32.6033  32.7955  33.1797  33.4624  33.7309  33.9304  34.5192  36.1643
    36.7220  37.2425  37.9078  38.2994  38.4101  38.9198

          k = 0.5198 0.2993 0.0000 (  5002 PWs)   bands (ev):

   -12.1585 -12.1157 -11.9119 -11.8675  -0.4138  -0.2788  -0.2284   0.0706
     0.1287   0.3823   1.9400   2.2419   3.0018   3.4224   3.7186   3.9595
     7.5901   7.8310   9.9445  10.3085  12.9298  13.1856  13.2698  14.1355
    14.5209  14.8460  14.9219  17.1382  17.3431  17.6871  17.7444  17.9493
    19.0226  19.7634  20.1284  20.3756  20.4282  24.2063  24.2243  24.3702
    25.0199  25.0334  25.1081  25.7292  26.5788  26.8394  27.0752  27.9757
    28.4413  29.5726  29.8204  30.4645  30.5933  31.1915  31.9076  32.1745
    32.5655  32.6871  32.8646  33.4151  33.6953  33.7819  34.6904  36.3293
    36.7966  37.2460  38.1427  38.3283  38.6118  38.7479

          k = 0.5390 0.3104 0.0000 (  5010 PWs)   bands (ev):

   -12.1105 -12.0678 -11.9494 -11.9056  -0.3927  -0.2284  -0.2159   0.0241
     0.1065   0.2968   1.8955   2.2067   3.0947   3.3656   3.7722   3.9264
     7.6658   7.8292   9.8977  10.2901  12.9258  13.1488  13.2276  14.2264
    14.5258  14.9191  14.9292  17.1784  17.4737  17.6045  17.7039  17.7869
    19.1864  19.8750  20.0039  20.1633  20.3111  24.3912  24.4223  24.5081
    24.9434  25.0209  25.1604  25.4774  26.5649  26.9667  27.1972  28.1077
    28.2124  29.6238  29.9651  30.6341  30.8092  30.8385  32.0109  32.3090
    32.5363  32.5545  32.5652  33.2399  33.6611  33.6934  34.9462  36.2234
    36.8961  37.4153  38.2951  38.3667  38.5215  38.7215

          k = 0.5583 0.3215 0.0000 (  5012 PWs)   bands (ev):

   -12.0663 -12.0235 -11.9877 -11.9443  -0.3635  -0.1998  -0.1803  -0.0709
     0.1424   0.2241   1.8669   2.1841   3.1765   3.3056   3.8192   3.8922
     7.7280   7.8110   9.8705  10.2849  12.9423  13.0509  13.2545  14.2802
    14.5326  14.9471  14.9622  17.2159  17.5300  17.5735  17.6513  17.6907
    19.3729  19.9081  19.9597  19.9833  20.1973  24.5646  24.6248  24.6545
    24.8457  24.9450  25.1895  25.2540  26.5606  27.0243  27.4041  27.9380
    28.1831  29.6657  30.1298  30.5380  30.8277  30.9707  32.0415  32.2760
    32.4466  32.4932  32.5829  33.0009  33.6344  33.6461  35.2570  35.9393
    36.9735  37.6971  38.2674  38.2723  38.5736  38.6416

          k = 0.5775 0.3325 0.0000 (  5018 PWs)   bands (ev):

   -12.0278 -12.0243 -11.9848 -11.9813  -0.3446  -0.1908  -0.1385  -0.1370
     0.1751   0.1762   1.8568   2.1761   3.2421   3.2473   3.8552   3.8606
     7.7717   7.7813   9.8620  10.2855  12.9767  12.9872  13.2646  14.2973
    14.5362  14.9637  14.9700  17.2270  17.5481  17.5595  17.6424  17.6497
    19.4970  19.8501  19.8539  20.0846  20.0934  24.7225  24.7328  24.7646
    24.7851  24.9002  24.9401  25.2922  26.5598  27.0405  27.6470  27.6677
    28.2060  29.6834  30.3080  30.3108  30.9770  30.9836  32.0862  32.0897
    32.4357  32.5656  32.7394  32.7585  33.6225  33.6311  35.5872  35.6068
    37.0009  37.9849  38.0048  38.2642  38.6044  38.7496

          k = 0.5775 0.3215 0.0000 (  5014 PWs)   bands (ev):

   -12.0447 -12.0078 -12.0018 -11.9647  -0.3525  -0.1941  -0.1465  -0.1198
     0.1656   0.1903   1.8595   2.1783   3.2157   3.2718   3.8423   3.8723
     7.7533   7.7966   9.8638  10.2843  12.9597  13.0123  13.2612  14.2930
    14.5346  14.9539  14.9726  17.2270  17.5222  17.6031  17.6117  17.6737
    19.4552  19.8399  19.9166  20.0362  20.1427  24.6229  24.6579  24.7689
    24.8484  24.9281  25.0128  25.2790  26.5602  27.0362  27.5269  27.7978
    28.2013  29.6783  30.2291  30.4036  30.9066  31.0064  32.0576  32.1642
    32.4327  32.5610  32.6282  32.8774  33.6288  33.6326  35.4226  35.7741
    36.9955  37.8494  38.1272  38.2664  38.6197  38.6728

          k = 0.5775 0.3104 0.0000 (  5014 PWs)   bands (ev):

   -12.0638 -12.0210 -11.9900 -11.9466  -0.3757  -0.2043  -0.1359  -0.1039
     0.1665   0.2037   1.8676   2.1846   3.1845   3.2975   3.8242   3.8869
     7.7288   7.8116   9.8694  10.2810  12.9513  13.0451  13.2526  14.2810
    14.5304  14.9363  14.9705  17.2295  17.5109  17.5757  17.6609  17.6921
    19.3735  19.8396  19.9913  20.0283  20.1902  24.4443  24.5893  24.7634
    24.9110  25.0020  25.1132  25.2416  26.5598  27.0251  27.4243  27.9293
    28.1864  29.6664  30.1635  30.5010  30.7978  30.9836  32.0796  32.2713
    32.4226  32.5303  32.5433  33.0012  33.6400  33.6452  35.2693  35.9358
    36.9754  37.7183  38.2112  38.2727  38.6058  38.6768

          k = 0.5775 0.2993 0.0000 (  5000 PWs)   bands (ev):

   -12.0828 -12.0401 -11.9730 -11.9295  -0.4093  -0.2214  -0.1105  -0.0904
     0.1784   0.2156   1.8810   2.1951   3.1535   3.3197   3.8061   3.8994
     7.7016   7.8235   9.8784  10.2744  12.9543  13.0836  13.2383  14.2614
    14.5232  14.9124  14.9629  17.2371  17.5149  17.5366  17.7044  17.7292
    19.2787  19.8492  19.9503  20.1614  20.2357  24.2537  24.5169  24.7439
    24.9722  25.0939  25.1775  25.2175  26.5582  27.0074  27.3429  28.0602
    28.1624  29.6521  30.1085  30.5994  30.6635  30.9210  32.1428  32.3980
    32.4068  32.4501  32.5116  33.1246  33.6538  33.6732  35.1339  36.0845
    36.9439  37.5954  38.2513  38.2833  38.5530  38.7793

          k = 0.5775 0.2882 0.0000 (  5008 PWs)   bands (ev):

   -12.1016 -12.0589 -11.9570 -11.9132  -0.4482  -0.2443  -0.0797  -0.0753
     0.1999   0.2257   1.8996   2.2099   3.1227   3.3382   3.7879   3.9097
     7.6721   7.8325   9.8904  10.2636  12.9693  13.1277  13.2181  14.2344
    14.5125  14.8839  14.9500  17.2509  17.4957  17.5342  17.7109  17.8055
    19.1806  19.8680  19.9139  20.2792  20.3062  24.0548  24.4408  24.7217
    25.0317  25.0873  25.1921  25.3220  26.5550  26.9833  27.2848  28.1303
    28.1880  29.6409  30.0577  30.5133  30.6977  30.8321  32.2300  32.3723
    32.3910  32.4643  32.5489  33.2437  33.6720  33.7162  35.0225  36.2059
    36.9119  37.4841  38.2609  38.2982  38.5163  38.9114

          k = 0.5775 0.2771 0.0000 (  5004 PWs)   bands (ev):

   -12.1202 -12.0775 -11.9418 -11.8978  -0.4894  -0.2713  -0.0715  -0.0337
     0.2295   0.2341   1.9235   2.2289   3.0924   3.3529   3.7696   3.9177
     7.6407   7.8387   9.9049  10.2477  12.9970  13.1773  13.1916  14.2000
    14.4982  14.8524  14.9325  17.2708  17.4547  17.5683  17.7116  17.8882
    19.0830  19.8823  19.8950  20.3205  20.4586  23.8491  24.3610  24.6996
    24.9699  25.0916  25.2933  25.4261  26.5499  26.9533  27.2493  28.0910
    28.3098  29.6372  30.0070  30.3539  30.7290  30.7944  32.3254  32.3325
    32.3556  32.4002  32.7059  33.3542  33.6937  33.7771  34.9412  36.2750
    36.9017  37.3872  38.2545  38.3174  38.4964  38.8506

          k = 0.5775 0.2660 0.0000 (  5002 PWs)   bands (ev):

   -12.1385 -12.0958 -11.9276 -11.8833  -0.5311  -0.3010  -0.0660   0.0128
     0.2405   0.2655   1.9522   2.2518   3.0626   3.3639   3.7513   3.9235
     7.6077   7.8425   9.9216  10.2263  13.0374  13.1588  13.2324  14.1579
    14.4802  14.8195  14.9116  17.2964  17.4146  17.6162  17.7065  17.9762
    18.9878  19.8561  19.9295  20.3593  20.6166  23.6375  24.2777  24.6787
    24.8321  25.1487  25.3958  25.5294  26.5426  26.9179  27.2344  28.0454
    28.4222  29.6419  29.9570  30.1896  30.6201  30.8872  32.2840  32.3199
    32.3454  32.4175  32.8695  33.4526  33.7177  33.8582  34.8945  36.2673
    36.9346  37.3078  38.2398  38.3407  38.4935  38.6968

          k = 0.5775 0.2550 0.0000 (  5008 PWs)   bands (ev):

   -12.1565 -12.1138 -11.9142 -11.8696  -0.5727  -0.3323  -0.0631   0.0632
     0.2452   0.3066   1.9856   2.2787   3.0337   3.3711   3.7330   3.9269
     7.5736   7.8442   9.9400  10.1992  13.0905  13.1196  13.2927  14.1082
    14.4585  14.7865  14.8889  17.3269  17.3767  17.6768  17.6957  18.0684
    18.8959  19.8357  19.9705  20.3955  20.7790  23.4212  24.1907  24.6593
    24.6766  25.2044  25.4986  25.6316  26.5329  26.8779  27.2368  27.9945
    28.5212  29.6487  29.9173  30.0234  30.5104  30.9719  32.2272  32.2282
    32.3600  32.4991  33.0367  33.5360  33.7434  33.9606  34.8846  36.1890
    36.9934  37.2570  38.2203  38.3677  38.4966  38.5074

          k = 0.5775 0.2439 0.0000 (  5006 PWs)   bands (ev):

   -12.1741 -12.1314 -11.9016 -11.8568  -0.6136  -0.3642  -0.0625   0.1169
     0.2481   0.3520   2.0231   2.3092   3.0056   3.3745   3.7148   3.9281
     7.5385   7.8438   9.9596  10.1663  13.0745  13.1561  13.3578  14.0512
    14.4337  14.7546  14.8656  17.3416  17.3614  17.6792  17.7487  18.1642
    18.8081  19.8213  20.0172  20.4290  20.9448  23.2010  24.1001  24.5080
    24.6415  25.2586  25.6006  25.7325  26.5204  26.8339  27.2531  27.9397
    28.6026  29.6384  29.8574  29.9117  30.4032  31.0416  32.1300  32.1668
    32.3983  32.5670  33.2042  33.6033  33.7715  34.0835  34.9105  36.0658
    37.0194  37.2676  38.1975  38.2728  38.3978  38.5375

          k = 0.5775 0.2328 0.0000 (  5002 PWs)   bands (ev):

   -12.1912 -12.1485 -11.8899 -11.8447  -0.6535  -0.3962  -0.0641   0.1734
     0.2494   0.4007   2.0643   2.3431   2.9786   3.3743   3.6966   3.9270
     7.5030   7.8419   9.9801  10.1279  13.0236  13.2334  13.4272  13.9872
    14.4064  14.7248  14.8429  17.3100  17.3988  17.6572  17.8304  18.2629
    18.7245  19.8134  20.0689  20.4596  21.1132  22.9777  24.0060  24.3306
    24.6253  25.3111  25.7005  25.8318  26.5050  26.7866  27.2799  27.8823
    28.6630  29.5974  29.6936  29.9582  30.3005  31.0845  32.0424  32.1011
    32.4579  32.6203  33.3670  33.6555  33.8047  34.2245  34.9683  35.9172
    36.9891  37.3430  38.0386  38.1722  38.4298  38.5824

          k = 0.5775 0.2217 0.0000 (  5006 PWs)   bands (ev):

   -12.2079 -12.1651 -11.8789 -11.8335  -0.6922  -0.4280  -0.0676   0.2325
     0.2491   0.4522   2.1086   2.3800   2.9529   3.3704   3.6784   3.9236
     7.4671   7.8385  10.0010  10.0846  12.9677  13.3220  13.5001  13.9172
    14.3777  14.6976  14.8216  17.2821  17.4382  17.6300  17.9205  18.3639
    18.6452  19.8123  20.1248  20.4871  21.2831  22.7525  23.9085  24.1483
    24.6107  25.3619  25.7969  25.9295  26.4862  26.7369  27.3146  27.8244
    28.6989  29.5331  29.5397  30.0478  30.2036  31.0836  31.9841  32.0325
    32.5364  32.6603  33.5151  33.6952  33.8518  34.3797  35.0519  35.7539
    36.9364  37.4380  37.8017  38.1451  38.4622  38.6373

          k = 0.5775 0.2106 0.0000 (  5002 PWs)   bands (ev):

   -12.2241 -12.1812 -11.8688 -11.8230  -0.7296  -0.4591  -0.0729   0.2474
     0.2936   0.5060   2.1554   2.4197   2.9288   3.3631   3.6603   3.9180
     7.4314   7.8339  10.0213  10.0378  12.9074  13.4208  13.5750  13.8422
    14.3495  14.6733  14.8020  17.2579  17.4786  17.5980  18.0178  18.4669
    18.5697  19.8181  20.1843  20.5114  21.4536  22.5261  23.8076  23.9647
    24.5977  25.4108  25.8877  26.0252  26.4639  26.6851  27.3550  27.7682
    28.7075  29.3775  29.4832  30.1133  30.1668  31.0256  31.9621  31.9714
    32.6308  32.6887  33.6289  33.7251  33.9310  34.5450  35.1547  35.5821
    36.8781  37.5288  37.5666  38.1169  38.4919  38.6819

          k = 0.5775 0.1995 0.0000 (  5000 PWs)   bands (ev):

   -12.2397 -12.1967 -11.8593 -11.8133  -0.7654  -0.4893  -0.0795   0.2445
     0.3565   0.5615   2.2038   2.4616   2.9064   3.3523   3.6423   3.9102
     7.3958   7.8283   9.9849  10.0438  12.8437  13.5290  13.6496  13.7631
    14.3246  14.6521  14.7845  17.2371  17.5192  17.5617  18.1210  18.4975
    18.5713  19.8309  20.2467  20.5323  21.6231  22.2996  23.7036  23.7833
    24.5860  25.4579  25.9706  26.1188  26.4377  26.6320  27.3991  27.7167
    28.6868  29.2277  29.4399  30.0299  30.3067  30.9129  31.8910  32.0046
    32.7075  32.7386  33.6956  33.7477  34.0544  34.7157  35.2710  35.4056
    36.8191  37.3372  37.6058  38.0886  38.5112  38.6838

          k = 0.5775 0.1884 0.0000 (  5000 PWs)   bands (ev):

   -12.2547 -12.2117 -11.8506 -11.8042  -0.7997  -0.5185  -0.0872   0.2406
     0.4209   0.6184   2.2531   2.5054   2.8862   3.3383   3.6243   3.9004
     7.3609   7.8219   9.9307  10.0642  12.7775  13.6457  13.6814  13.7199
    14.3073  14.6338  14.7689  17.2194  17.5220  17.5593  18.2291  18.4279
    18.6768  19.8507  20.3114  20.5496  21.7894  22.0739  23.5966  23.6081
    24.5757  25.5029  26.0425  26.2101  26.4076  26.5779  27.4456  27.6735
    28.6380  29.0846  29.4156  29.9535  30.4619  30.7605  31.8202  32.0712
    32.7183  32.8570  33.7295  33.7645  34.2071  34.8874  35.2271  35.3960
    36.7611  37.1168  37.6638  38.0613  38.5065  38.6823

          k = 0.5775 0.1774 0.0000 (  5008 PWs)   bands (ev):

   -12.2690 -12.2259 -11.8426 -11.7959  -0.8324  -0.5465  -0.0959   0.2359
     0.4864   0.6761   2.3022   2.5508   2.8686   3.3212   3.6064   3.8887
     7.3267   7.8149   9.8742  10.0842  12.7096  13.5981  13.7688  13.7809
    14.3043  14.6184  14.7552  17.2043  17.4795  17.5980  18.3410  18.3598
    18.7833  19.8773  20.3779  20.5632  21.8501  21.9488  23.4441  23.4868
    24.5666  25.5458  26.1002  26.2986  26.3732  26.5232  27.4932  27.6424
    28.5657  28.9492  29.4104  29.8840  30.5830  30.6286  31.7504  32.1586
    32.7224  32.9837  33.7472  33.7766  34.3721  35.0489  35.0547  35.5261
    36.7052  36.9096  37.6997  38.0361  38.4751  38.7033

          k = 0.5775 0.1663 0.0000 (  5004 PWs)   bands (ev):

   -12.2827 -12.2395 -11.8353 -11.7882  -0.8633  -0.5732  -0.1051   0.2305
     0.5526   0.7343   2.3502   2.5973   2.8541   3.3013   3.5886   3.8751
     7.2935   7.8075   9.8164  10.1033  12.6411  13.5144  13.8208  13.9014
    14.3236  14.6055  14.7433  17.1910  17.4351  17.6349  18.2923  18.4559
    18.8904  19.9102  20.4455  20.5728  21.6291  22.0946  23.2992  23.3747
    24.5587  25.5866  26.1407  26.3346  26.3841  26.4686  27.5409  27.6270
    28.4769  28.8222  29.4209  29.8212  30.3907  30.8036  31.6824  32.2583
    32.7205  33.1162  33.7564  33.7849  34.5412  34.8730  35.2106  35.6584
    36.6517  36.7218  37.7117  38.0145  38.4302  38.7387

          k = 0.5775 0.1552 0.0000 (  5010 PWs)   bands (ev):

   -12.2957 -12.2524 -11.8285 -11.7812  -0.8925  -0.5985  -0.1148   0.2246
     0.6191   0.7925   2.3955   2.6444   2.8436   3.2788   3.5707   3.8600
     7.2614   7.7997   9.7580  10.1213  12.5729  13.4314  13.8395  14.0380
    14.3702  14.5949  14.7329  17.1789  17.3898  17.6695  18.2242  18.5729
    18.9980  19.9489  20.5135  20.5783  21.4123  22.2139  23.1871  23.2605
    24.5518  25.6251  26.1619  26.2919  26.4118  26.4685  27.5877  27.6301
    28.3784  28.7043  29.4434  29.7648  30.1902  30.9849  31.6167  32.3650
    32.7134  33.2515  33.7607  33.7896  34.7018  34.7105  35.3444  35.7904
    36.5635  36.6013  37.6993  37.9978  38.3810  38.7800

          k = 0.5775 0.1441 0.0000 (  5028 PWs)   bands (ev):

   -12.3079 -12.2645 -11.8224 -11.7748  -0.9199  -0.6223  -0.1246   0.2184
     0.6854   0.8501   2.4368   2.6918   2.8380   3.2540   3.5529   3.8434
     7.2307   7.7918   9.6997  10.1382  12.5059  13.3500  13.8374  14.1794
    14.4423  14.5863  14.7240  17.1671  17.3443  17.7014  18.1546  18.6912
    19.1059  19.9926  20.5794  20.5809  21.2011  22.2859  23.1295  23.1446
    24.5458  25.6613  26.1633  26.2454  26.3577  26.5471  27.6329  27.6525
    28.2754  28.5958  29.4745  29.7144  29.9860  31.1703  31.5540  32.4756
    32.7014  33.3861  33.7616  33.7913  34.5380  34.8779  35.4389  35.9201
    36.4513  36.5543  37.6633  37.9875  38.3316  38.8234

          k = 0.5775 0.1330 0.0000 (  5028 PWs)   bands (ev):

   -12.3193 -12.2759 -11.8168 -11.7690  -0.9454  -0.6446  -0.1345   0.2120
     0.7512   0.9069   2.4725   2.7392   2.8383   3.2274   3.5349   3.8258
     7.2016   7.7838   9.6424  10.1539  12.4408  13.2712  13.8209  14.3247
    14.5334  14.5794  14.7162  17.1549  17.2993  17.7305  18.0826  18.8101
    19.2140  20.0403  20.5760  20.6457  20.9981  22.2921  23.0278  23.1452
    24.5406  25.6950  26.1466  26.1956  26.3035  26.6226  27.6754  27.6930
    28.1717  28.4972  29.5119  29.6696  29.7815  31.3581  31.4946  32.5879
    32.6848  33.5145  33.7602  33.7901  34.3866  35.0419  35.4735  36.0454
    36.4054  36.5114  37.6058  37.9851  38.2837  38.8665

          k = 0.5775 0.1219 0.0000 (  5020 PWs)   bands (ev):

   -12.3299 -12.2864 -11.8118 -11.7637  -0.9690  -0.6653  -0.1441   0.2057
     0.8159   0.9621   2.5012   2.7862   2.8454   3.1991   3.5170   3.8073
     7.1742   7.7759   9.5867  10.1682  12.3784  13.1958  13.7961  14.4729
    14.5739  14.6372  14.7095  17.1414  17.2554  17.7567  18.0076  18.9289
    19.3218  20.0908  20.5678  20.6937  20.8182  22.2404  22.9105  23.2266
    24.5361  25.7263  26.1152  26.1430  26.2501  26.6944  27.7146  27.7487
    28.0702  28.4084  29.5540  29.5795  29.6300  31.4390  31.5465  32.6638
    32.7000  33.6262  33.7573  33.7867  34.2572  35.2013  35.4423  36.1643
    36.4317  36.4729  37.5298  37.9923  38.2383  38.9052

          k = 0.5775 0.1108 0.0000 (  5022 PWs)   bands (ev):

   -12.3397 -12.2961 -11.8074 -11.7590  -0.9906  -0.6843  -0.1534   0.1994
     0.8789   1.0153   2.5223   2.8322   2.8593   3.1699   3.4988   3.7884
     7.1486   7.7682   9.5333  10.1812  12.3194  13.1245  13.7675  14.5696
    14.6229  14.7037  14.7491  17.1259  17.2132  17.7799  17.9292  19.0469
    19.4291  20.1429  20.5546  20.5887  20.7982  22.1566  22.7935  23.3479
    24.5323  25.7550  26.0729  26.0888  26.1980  26.7621  27.7493  27.8157
    27.9726  28.3295  29.3827  29.5952  29.5994  31.3874  31.7334  32.6388
    32.8104  33.6981  33.7533  33.7813  34.1722  35.3546  35.3645  36.2748
    36.4397  36.5104  37.4394  38.0104  38.1958  38.7568

          k = 0.5775 0.0998 0.0000 (  5022 PWs)   bands (ev):

   -12.3487 -12.3050 -11.8034 -11.7547  -1.0103  -0.7016  -0.1622   0.1934
     0.9396   1.0660   2.5363   2.8764   2.8797   3.1400   3.4805   3.7693
     7.1250   7.7609   9.4828  10.1929  12.2643  13.0580  13.7377  14.5663
    14.6988  14.7735  14.8656  17.1076  17.1728  17.8002  17.8474  19.1635
    19.5352  20.1953  20.4166  20.5362  20.8533  22.0612  22.6779  23.4881
    24.5290  25.7811  26.0238  26.0338  26.1475  26.8256  27.7784  27.8805
    27.8900  28.2601  29.1940  29.5648  29.6469  31.3401  31.9163  32.6102
    32.9177  33.6985  33.7486  33.7744  34.1623  35.2653  35.5009  36.3750
    36.4123  36.6159  37.3391  38.0406  38.1567  38.6118

          k = 0.5775 0.0887 0.0000 (  5026 PWs)   bands (ev):

   -12.3567 -12.3130 -11.7999 -11.7510  -1.0280  -0.7172  -0.1703   0.1878
     0.9972   1.1135   2.5444   2.9025   2.9207   3.1103   3.4621   3.7505
     7.1036   7.7539   9.4358  10.2031  12.2137  12.9968  13.7085  14.5638
    14.6946  14.9234  14.9842  17.0860  17.1345  17.7625  17.8178  19.2778
    19.6395  20.2465  20.2514  20.5124  20.9099  21.9655  22.5648  23.6349
    24.5263  25.8044  25.9716  25.9795  26.0993  26.8848  27.7947  27.8005
    27.9677  28.1998  29.0169  29.5384  29.6954  31.2974  32.0920  32.5786
    33.0203  33.6389  33.7437  33.7667  34.2153  35.1617  35.6385  36.3916
    36.4636  36.7309  37.2340  38.0833  38.1212  38.4733

          k = 0.5775 0.0776 0.0000 (  5018 PWs)   bands (ev):

   -12.3639 -12.3200 -11.7969 -11.7478  -1.0436  -0.7310  -0.1777   0.1826
     1.0511   1.1573   2.5482   2.9281   2.9621   3.0813   3.4434   3.7324
     7.0844   7.7474   9.3930  10.2120  12.1680  12.9416  13.6810  14.5620
    14.6911  15.0708  15.1026  17.0608  17.0983  17.6758  17.8328  19.3894
    19.7408  20.0991  20.2951  20.4831  20.9634  21.8755  22.4556  23.7811
    24.5239  25.8250  25.9194  25.9270  26.0541  26.9396  27.7160  27.8136
    28.0455  28.1483  28.8551  29.5159  29.7435  31.2593  32.2557  32.5451
    33.1167  33.5623  33.7387  33.7586  34.2887  35.0627  35.7660  36.3787
    36.5393  36.8455  37.1292  38.0895  38.1379  38.3440

          k = 0.5775 0.0665 0.0000 (  5006 PWs)   bands (ev):

   -12.3701 -12.3262 -11.7943 -11.7451  -1.0572  -0.7430  -0.1844   0.1779
     1.1004   1.1968   2.5493   2.9537   3.0014   3.0537   3.4247   3.7155
     7.0676   7.7416   9.3547  10.2196  12.1276  12.8928  13.6561  14.5606
    14.6882  15.2111  15.2206  17.0320  17.0639  17.5888  17.8454  19.4973
    19.8376  19.9620  20.3398  20.4483  21.0121  21.7944  22.3521  23.9214
    24.5220  25.8429  25.8696  25.8779  26.0125  26.9900  27.6447  27.8160
    28.1049  28.1201  28.7130  29.4969  29.7900  31.2261  32.4009  32.5108
    33.2051  33.4956  33.7340  33.7508  34.3573  34.9731  35.8818  36.3741
    36.6019  36.9537  37.0298  38.0618  38.1965  38.2328

          k = 0.5775 0.0554 0.0000 (  5008 PWs)   bands (ev):

   -12.3754 -12.3315 -11.7921 -11.7427  -1.0687  -0.7532  -0.1901   0.1739
     1.1441   1.2313   2.5489   2.9775   3.0285   3.0378   3.4061   3.7002
     7.0532   7.7365   9.3216  10.2260  12.0929  12.8508  13.6342  14.5597
    14.6858  15.3249  15.3520  17.0003  17.0310  17.5045  17.8557  19.6009
    19.8424  19.9282  20.3791  20.4081  21.0552  21.7241  22.2565  24.0514
    24.5204  25.8243  25.8335  25.8578  25.9755  27.0359  27.5810  27.8062
    28.0693  28.1887  28.5950  29.4812  29.8333  31.1979  32.4774  32.5192
    33.2836  33.4536  33.7297  33.7437  34.4099  34.8957  35.9841  36.3777
    36.6518  36.9406  37.0516  38.0382  38.1180  38.2799

          k = 0.5775 0.0443 0.0000 (  5012 PWs)   bands (ev):

   -12.3797 -12.3358 -11.7903 -11.7409  -1.0782  -0.7616  -0.1949   0.1704
     1.1814   1.2605   2.5476   2.9984   3.0063   3.0710   3.3879   3.6870
     7.0413   7.7321   9.2938  10.2311  12.0641  12.8159  13.6159  14.5590
    14.6838  15.4246  15.4772  16.9672  16.9990  17.4266  17.8639  19.6989
    19.7418  20.0100  20.3627  20.4119  21.0916  21.6656  22.1714  24.1666
    24.5191  25.7851  25.7952  25.8700  25.9439  27.0772  27.5251  27.7847
    28.0408  28.2489  28.5041  29.4686  29.8718  31.1746  32.4465  32.6028
    33.3506  33.4447  33.7259  33.7379  34.4421  34.8316  36.0711  36.3881
    36.6901  36.8657  37.1362  38.0188  38.0294  38.3556

          k = 0.5775 0.0333 0.0000 (  5008 PWs)   bands (ev):

   -12.3831 -12.3391 -11.7890 -11.7394  -1.0856  -0.7681  -0.1986   0.1677
     1.2116   1.2837   2.5461   2.9880   3.0156   3.0998   3.3708   3.6762
     7.0319   7.7287   9.2719  10.2350  12.0415  12.7885  13.6014  14.5586
    14.6824  15.5100  15.5870  16.9353  16.9681  17.3600  17.8702  19.6619
    19.7899  20.0799  20.3134  20.4374  21.1208  21.6197  22.1001  24.2628
    24.5181  25.7534  25.7641  25.8793  25.9183  27.1134  27.4777  27.7554
    28.0191  28.2983  28.4400  29.4590  29.9039  31.1565  32.4200  32.6508
    33.4042  33.4671  33.7229  33.7337  34.4545  34.7815  36.1412  36.4024
    36.7179  36.8081  37.2050  37.9579  38.0036  38.4284

          k = 0.5775 0.0222 0.0000 (  5008 PWs)   bands (ev):

   -12.3856 -12.3416 -11.7880 -11.7384  -1.0908  -0.7728  -0.2014   0.1658
     1.2338   1.3006   2.5449   2.9743   3.0283   3.1230   3.3562   3.6683
     7.0253   7.7261   9.2561  10.2378  12.0252  12.7687  13.5909  14.5583
    14.6814  15.5766  15.6745  16.9079  16.9401  17.3093  17.8745  19.6039
    19.8708  20.1341  20.2627  20.4551  21.1421  21.5867  22.0457  24.3355
    24.5174  25.7300  25.7411  25.8857  25.8997  27.1433  27.4399  27.7257
    28.0039  28.3351  28.3994  29.4522  29.9282  31.1436  32.3996  32.6717
    33.4433  33.5063  33.7207  33.7310  34.4523  34.7457  36.1925  36.4162
    36.7366  36.7689  37.2558  37.9055  37.9927  38.4900

          k = 0.5775 0.0111 0.0000 (  5014 PWs)   bands (ev):

   -12.3870 -12.3430 -11.7875 -11.7378  -1.0940  -0.7756  -0.2030   0.1646
     1.2473   1.3109   2.5440   2.9659   3.0360   3.1385   3.3460   3.6634
     7.0212   7.7246   9.2465  10.2395  12.0154  12.7568  13.5846  14.5581
    14.6807  15.6193  15.7318  16.8892  16.9194  17.2779  17.8771  19.5687
    19.9337  20.1689  20.2180  20.4654  21.1551  21.5668  22.0115  24.3809
    24.5170  25.7158  25.7270  25.8866  25.8912  27.1640  27.4144  27.7037
    27.9949  28.3578  28.3775  29.4481  29.9433  31.1358  32.3867  32.6782
    33.4669  33.5416  33.7193  33.7298  34.4445  34.7243  36.2239  36.4259
    36.7471  36.7473  37.2871  37.8735  37.9862  38.5319

          k = 0.5775 0.0000 0.0000 (  5010 PWs)   bands (ev):

   -12.3875 -12.3435 -11.7873 -11.7376  -1.0951  -0.7766  -0.2035   0.1642
     1.2519   1.3144   2.5437   2.9630   3.0387   3.1440   3.3422   3.6617
     7.0199   7.7241   9.2433  10.2400  12.0121  12.7528  13.5825  14.5581
    14.6805  15.6340  15.7519  16.8825  16.9116  17.2673  17.8780  19.5569
    19.9601  20.1809  20.1977  20.4687  21.1594  21.5601  21.9998  24.3964
    24.5169  25.7110  25.7223  25.8834  25.8918  27.1716  27.4051  27.6956
    27.9919  28.3654  28.3707  29.4468  29.9484  31.1332  32.3823  32.6793
    33.4748  33.5556  33.7189  33.7294  34.4406  34.7171  36.2345  36.4292
    36.7403  36.7508  37.2976  37.8628  37.9840  38.5468

          k = 0.5583 0.0000 0.0000 (  5006 PWs)   bands (ev):

   -12.3930 -12.3489 -11.7845 -11.7347  -1.0909  -0.7713  -0.1981   0.1687
     1.2538   1.3162   2.5169   2.9847   3.0393   3.1445   3.3282   3.6743
     7.0107   7.7179   9.2617  10.2518  12.0129  12.7416  13.5895  14.5645
    14.6807  15.6366  15.7533  16.8112  16.9622  17.2732  17.8752  19.5609
    19.9464  20.1159  20.2685  20.4648  21.1463  21.5633  22.0006  24.3633
    24.5037  25.6393  25.8298  25.8785  25.8947  27.1758  27.4336  27.7073
    27.8671  28.3618  28.5025  29.4495  29.9444  31.1292  32.3536  32.6882
    33.4405  33.4675  33.7070  33.7904  34.3936  34.7189  36.1884  36.2258
    36.7638  36.8815  37.3108  37.8411  37.9426  38.5664

          k = 0.5390 0.0000 0.0000 (  5002 PWs)   bands (ev):

   -12.4091 -12.3648 -11.7767 -11.7265  -1.0784  -0.7555  -0.1818   0.1822
     1.2594   1.3217   2.4490   3.0373   3.0412   3.1460   3.2915   3.7068
     6.9845   7.6991   9.3160  10.2869  12.0150  12.7092  13.6105  14.5735
    14.6909  15.6441  15.7576  16.7097  17.0024  17.2903  17.8671  19.5732
    19.9061  20.0463  20.3549  20.4526  21.1075  21.5730  22.0035  24.2690
    24.4666  25.6014  25.8534  25.9134  25.9723  27.1889  27.5129  27.6586
    27.7406  28.3355  28.7464  29.4581  29.9326  31.1178  32.2685  32.7130
    33.3003  33.3406  33.6698  33.8840  34.2625  34.7231  35.7801  36.1982
    36.8297  36.9698  37.3514  37.5432  38.1612  38.4758

          k = 0.5198 0.0000 0.0000 (  5013 PWs)   bands (ev):

   -12.4346 -12.3900 -11.7648 -11.7139  -1.0577  -0.7292  -0.1548   0.2044
     1.2687   1.3307   2.3588   3.0442   3.1016   3.1485   3.2414   3.7497
     6.9448   7.6682   9.4030  10.3445  12.0171  12.6584  13.6448  14.5634
    14.7314  15.6559  15.7652  16.5930  17.0214  17.3160  17.8547  19.5943
    19.8408  19.9775  20.4305  20.4512  21.0444  21.5889  22.0095  24.1252
    24.4125  25.6013  25.8114  25.9435  26.1368  27.2119  27.4497  27.6277
    27.7910  28.2925  29.0099  29.4745  29.9138  31.0995  32.1302  32.7480
    33.1031  33.1839  33.6026  33.9823  34.0714  34.7275  35.3266  36.1490
    36.9274  36.9280  37.2117  37.4224  38.3019  38.4577

          k = 0.5005 0.0000 0.0000 (  4999 PWs)   bands (ev):

   -12.4681 -12.4230 -11.7501 -11.6983  -1.0287  -0.6926  -0.1172   0.2354
     1.2816   1.3434   2.2575   3.0485   3.1519   3.1666   3.1844   3.7967
     6.8963   7.6256   9.5185  10.4235  12.0170  12.5936  13.6912  14.5324
    14.8025  15.6710  15.7768  16.4637  17.0230  17.3470  17.8394  19.6247
    19.7529  19.9076  20.3966  20.5585  20.9591  21.6110  22.0202  23.9457
    24.3500  25.6350  25.7543  25.9808  26.3159  27.2448  27.2539  27.7577
    27.8525  28.2340  29.2626  29.5115  29.8897  31.0755  31.9437  32.7786
    32.9024  32.9809  33.4984  33.8469  34.0920  34.7306  34.8545  36.0760
    36.7655  36.8882  37.0482  37.5263  38.1430  38.7506

          k = 0.4813 0.0000 0.0000 (  4995 PWs)   bands (ev):

   -12.5082 -12.4625 -11.7339 -11.6809  -0.9917  -0.6459  -0.0695   0.2746
     1.2981   1.3595   2.1506   3.0538   3.1242   3.1561   3.2264   3.8441
     6.8437   7.5725   9.6577  10.5228  12.0109  12.5203  13.7484  14.4900
    14.8938  15.6875  15.7937  16.3239  17.0116  17.3808  17.8231  19.6449
    19.6646  19.8350  20.3494  20.6772  20.8543  21.6394  22.0375  23.7431
    24.2868  25.6833  25.6970  26.0210  26.5029  27.0752  27.2856  27.8814
    27.9195  28.1613  29.4191  29.6450  29.8633  31.0458  31.7162  32.6700
    32.7415  32.8453  33.3497  33.6115  34.2201  34.3782  34.7328  35.9801
    36.5060  36.5893  37.1838  37.6635  38.0201  38.9137

          k = 0.4620 0.0000 0.0000 (  5007 PWs)   bands (ev):

   -12.5532 -12.5069 -11.7173 -11.6629  -0.9468  -0.5892  -0.0122   0.3219
     1.3180   1.3790   2.0413   3.0601   3.0628   3.1611   3.2780   3.8896
     6.7912   7.5102   9.8156  10.6415  11.9928  12.4452  13.8141  14.4429
    14.9986  15.7034  15.8172  16.1756  16.9914  17.4172  17.8077  19.5192
    19.7136  19.7591  20.2879  20.7336  20.8073  21.6743  22.0628  23.5273
    24.2289  25.5988  25.7822  26.0593  26.6916  26.9153  27.3285  27.9769
    27.9880  28.0768  29.4637  29.8388  29.8820  31.0048  31.4612  32.4738
    32.4946  32.8736  33.1519  33.3800  33.9089  34.3696  34.7357  35.8659
    36.1781  36.3237  37.3321  37.8317  37.9403  38.9682

          k = 0.4428 0.0000 0.0000 (  5019 PWs)   bands (ev):

   -12.6022 -12.5551 -11.7012 -11.6452  -0.8942  -0.5229   0.0542   0.3767
     1.3413   1.4017   1.9317   3.0017   3.0673   3.1668   3.3191   3.9319
     6.7418   7.4401   9.9876  10.7790  11.9545  12.3763  13.8856  14.3966
    15.1125  15.7170  15.8481  16.0203  16.9666  17.4577  17.7955  19.3784
    19.6795  19.7707  20.2121  20.6003  20.9482  21.7159  22.0975  23.3056
    24.1802  25.5010  25.8863  26.0906  26.7747  26.8758  27.3632  27.9705
    28.0358  28.0577  29.4838  29.8212  30.1254  30.9157  31.2246  32.1835
    32.3560  32.8994  32.9054  33.1556  33.4621  34.5383  34.7410  35.7413
    35.8116  36.0959  37.4934  37.9023  38.0257  38.8006

          k = 0.4235 0.0000 0.0000 (  5021 PWs)   bands (ev):

   -12.6539 -12.6060 -11.6863 -11.6284  -0.8341  -0.4472   0.1289   0.4385
     1.3677   1.4276   1.8235   2.9420   3.0752   3.1730   3.3485   3.9699
     6.6979   7.3638  10.1692  10.9350  11.8888  12.3196  13.9597  14.3562
    15.2322  15.7276  15.8598  15.8861  16.9421  17.5039  17.7885  19.2251
    19.5965  19.8343  20.1226  20.4585  21.0988  21.7649  22.1424  23.0835
    24.1432  25.3891  26.0054  26.1099  26.6536  27.0500  27.3757  27.8626
    28.0243  28.1325  29.4965  29.8155  30.3474  30.6860  31.1080  31.8747
    32.2697  32.6160  32.8960  32.9208  33.0909  34.7206  34.7491  35.4333
    35.6171  35.9079  37.6694  37.8995  38.2371  38.3896

          k = 0.4043 0.0000 0.0000 (  5021 PWs)   bands (ev):

   -12.7075 -12.6587 -11.6729 -11.6129  -0.7669  -0.3625   0.2108   0.5066
     1.3972   1.4563   1.7186   2.8847   3.0838   3.1797   3.3654   4.0027
     6.6608   7.2825  10.3565  11.1094  11.7943  12.2751  14.0324  14.3265
    15.3552  15.6960  15.7351  15.9300  16.9238  17.5576  17.7886  19.0615
    19.5108  19.9024  20.0204  20.3118  21.2582  21.8218  22.1979  22.8653
    24.1191  25.2619  26.1119  26.1360  26.5519  27.2085  27.3530  27.7408
    27.9481  28.2184  29.5039  29.8242  30.3567  30.5341  31.0794  31.5502
    32.2399  32.2924  32.5364  32.8641  32.9415  34.7592  34.9088  35.0672
    35.5057  35.7602  37.8621  37.8695  37.9224  38.4535

          k = 0.3850 0.0000 0.0000 (  5031 PWs)   bands (ev):

   -12.7623 -12.7126 -11.6614 -11.5991  -0.6930  -0.2693   0.2984   0.5802
     1.4295   1.4879   1.6189   2.8305   3.0927   3.1866   3.3694   4.0296
     6.6305   7.1979  10.5458  11.3021  11.6755  12.2366  14.0993  14.3120
    15.4795  15.5311  15.7393  15.9785  16.9177  17.6207  17.7972  18.8904
    19.4231  19.9071  19.9731  20.1643  21.4248  21.8870  22.2641  22.6543
    24.1084  25.1183  26.0911  26.2746  26.4688  27.2897  27.3461  27.6069
    27.8074  28.3174  29.5063  29.8459  29.9932  30.6735  31.0811  31.2134
    31.9456  32.1667  32.2605  32.6881  32.9668  34.7364  34.7708  35.0945
    35.4195  35.6515  37.3163  37.9605  38.0735  38.6570

          k = 0.3658 0.0000 0.0000 (  5027 PWs)   bands (ev):

   -12.8177 -12.7670 -11.6518 -11.5872  -0.6126  -0.1679   0.3892   0.6583
     1.4643   1.5219   1.5271   2.7806   3.1019   3.1936   3.3606   4.0499
     6.6060   7.1118  10.7343  11.5123  11.5381  12.1975  14.1558  14.3164
    15.3674  15.6035  15.7403  16.0301  16.9302  17.6946  17.8153  18.7141
    19.3346  19.7847  20.0195  20.0446  21.5975  21.9606  22.3408  22.4531
    24.1110  24.9570  26.0411  26.4036  26.4181  27.1915  27.4581  27.4593
    27.6131  28.4244  29.5033  29.6164  29.8741  30.7560  30.8697  31.0944
    31.5907  31.8266  32.3170  32.5125  33.0037  34.4641  34.7842  35.2704
    35.3689  35.5786  36.7630  38.0025  38.3050  38.8262

          k = 0.3465 0.0000 0.0000 (  5033 PWs)   bands (ev):

   -12.8730 -12.8213 -11.6443 -11.5771  -0.5264  -0.0591   0.4794   0.7398
     1.4472   1.5015   1.5582   2.7360   3.1112   3.2006   3.3395   4.0630
     6.5844   7.0270  10.9198  11.3862  11.7387  12.1535  14.1974  14.3419
    15.2083  15.7260  15.7376  16.0834  16.9665  17.7806  17.8431  18.5348
    19.2461  19.6549  19.8811  20.1151  21.7748  22.0423  22.2638  22.4278
    24.1261  24.7775  25.9560  26.3553  26.5628  27.0700  27.2862  27.3894
    27.5401  28.5277  29.2381  29.4946  29.8974  30.5292  30.7756  31.0582
    31.2928  31.5256  32.3167  32.3907  33.0596  34.2692  34.8017  35.3600
    35.4309  35.5365  36.2293  38.0347  38.5564  38.9425

          k = 0.3273 0.0000 0.0000 (  5037 PWs)   bands (ev):

   -12.9278 -12.8751 -11.6387 -11.5689  -0.4347   0.0568   0.5624   0.8233
     1.3857   1.5407   1.5965   2.6978   3.1204   3.2073   3.3070   4.0682
     6.5602   6.9487  11.1005  11.2229  11.9792  12.1026  14.2205  14.3895
    15.0577  15.7309  15.8465  16.1367  17.0308  17.8795  17.8807  18.3547
    19.1586  19.5199  19.7526  20.1833  21.9558  22.0882  22.1310  22.5245
    24.1522  24.5804  25.8311  26.3226  26.7048  26.9378  27.0480  27.1889
    27.5870  28.6081  28.8699  29.4801  29.8972  30.2107  30.7322  30.7775
    31.2504  31.2698  32.0934  32.4645  33.1402  34.1584  34.8267  35.3929
    35.5189  35.5729  35.7313  38.0355  38.8256  38.9998

          k = 0.3080 0.0000 0.0000 (  5045 PWs)   bands (ev):

   -12.9815 -12.9279 -11.6350 -11.5626  -0.3381   0.1790   0.6282   0.9071
     1.3528   1.5816   1.6365   2.6672   3.1293   3.2137   3.2640   4.0653
     6.5247   6.8847  11.0504  11.2749  12.0449  12.2306  14.2223  14.4589
    14.9214  15.7200  15.9648  16.1885  17.1248  17.9254  17.9941  18.1759
    19.0728  19.3816  19.6373  20.2479  21.9278  22.1393  22.2242  22.6306
    24.1870  24.3680  25.6662  26.3044  26.7560  26.8031  26.8397  27.0113
    27.5899  28.5286  28.6361  29.4595  29.8051  29.9907  30.4222  30.6308
    31.0651  31.2957  31.8484  32.5282  33.2457  34.1210  34.8637  35.2878
    35.4620  35.5183  35.6960  37.9618  38.7274  39.0050

          k = 0.2888 0.0000 0.0000 (  5051 PWs)   bands (ev):

   -13.0339 -12.9793 -11.6330 -11.5579  -0.2372   0.3069   0.6649   0.9894
     1.3599   1.6239   1.6779   2.6458   3.1378   3.2117   3.2196   4.0537
     6.4682   6.8434  10.8706  11.4414  11.9816  12.4892  14.2015  14.5488
    14.8064  15.7048  16.0811  16.2369  17.2484  17.9769  18.0001  18.1238
    18.9894  19.2419  19.5382  20.3079  21.7838  22.3165  22.3248  22.7456
    24.1459  24.2272  25.4657  26.2993  26.4418  26.6681  26.8349  26.9612
    27.5295  28.2434  28.5767  29.4329  29.5644  29.9449  30.0709  30.4805
    30.9086  31.3512  31.5968  32.5800  33.3702  34.1276  34.9160  34.9276
    35.5269  35.5581  35.8018  37.7622  38.5402  38.9709

          k = 0.2695 0.0000 0.0000 (  5051 PWs)   bands (ev):

   -13.0845 -13.0289 -11.6325 -11.5547  -0.1326   0.4398   0.6673   1.0681
     1.4120   1.6673   1.7202   2.6351   3.1456   3.1515   3.2249   4.0332
     6.3879   6.8265  10.6853  11.5980  11.9144  12.7489  14.1605  14.6575
    14.7196  15.6851  16.1959  16.2802  17.3996  17.8291  18.0322  18.2701
    18.9087  19.1027  19.4581  20.3626  21.6570  22.3986  22.5114  22.8690
    23.9248  24.2677  25.2378  26.1169  26.3059  26.5301  26.6559  27.0605
    27.3831  28.0499  28.4180  29.2948  29.4000  29.7391  29.9662  30.2920
    30.7789  31.3569  31.4030  32.6228  33.5048  34.1193  34.7078  34.9855
    35.5360  35.6710  35.8935  37.4675  38.4481  38.7521

          k = 0.2503 0.0000 0.0000 (  5055 PWs)   bands (ev):

   -13.1329 -13.0764 -11.6333 -11.5529  -0.0248   0.5769   0.6419   1.1412
     1.5023   1.7112   1.7630   2.6365   3.0846   3.1527   3.2293   4.0036
     6.2885   6.8282  10.4965  11.7423  11.8451  12.9997  14.1102  14.6648
    14.7827  15.6612  16.3097  16.3168  17.5750  17.6643  18.0887  18.4336
    18.8310  18.9656  19.3993  20.4111  21.5479  22.4505  22.6991  23.0001
    23.7258  24.3011  24.9919  25.7876  26.3229  26.3845  26.4748  27.1102
    27.1865  27.9436  28.1869  29.0029  29.3606  29.4382  30.0297  30.0758
    30.6416  31.1520  31.4429  32.6604  33.6417  34.0383  34.6834  35.0705
    35.5348  35.7916  35.9748  37.1570  38.3853  38.3934

          k = 0.2310 0.0000 0.0000 (  5047 PWs)   bands (ev):

   -13.1789 -13.1215 -11.6352 -11.5522   0.0854   0.5997   0.7175   1.2067
     1.6189   1.7553   1.8060   2.6510   3.0125   3.1588   3.2329   3.9648
     6.1757   6.8414  10.3062  11.7755  11.8717  13.2198  14.0782  14.6411
    14.9222  15.6335  16.3453  16.4233  17.5070  17.7710  18.1432  18.6149
    18.7563  18.8323  19.3635  20.4527  21.4564  22.4391  22.8877  23.1383
    23.5837  24.3182  24.7369  25.4583  26.2269  26.2931  26.3488  26.9301
    27.1622  27.8857  27.9191  28.6860  29.1806  29.3135  29.8425  30.1016
    30.4701  31.0111  31.4647  32.6955  33.7750  33.9399  34.7920  35.1592
    35.5155  35.9127  36.0499  36.8858  38.0150  38.3190

          k = 0.2118 0.0000 0.0000 (  5051 PWs)   bands (ev):

   -13.2222 -13.1640 -11.6380 -11.5526   0.1973   0.5500   0.8605   1.2632
     1.7517   1.7990   1.8487   2.6792   2.9364   3.1639   3.2356   3.9170
     6.0536   6.8612  10.1164  11.7072  11.9836  13.3659  14.1145  14.6459
    15.0734  15.6027  16.3650  16.5373  17.3584  17.9837  18.1927  18.6844
    18.7042  18.8139  19.3515  20.4863  21.3821  22.3322  23.0770  23.2828
    23.5323  24.3080  24.4806  25.1326  26.0538  26.1125  26.3823  26.7338
    27.1270  27.6383  27.8489  28.3498  28.9793  29.2540  29.6047  30.1297
    30.2667  30.9643  31.4641  32.7296  33.8859  33.9010  34.9564  35.1985
    35.5077  36.0297  36.1223  36.6913  37.6401  38.2397

          k = 0.1925 0.0000 0.0000 (  5055 PWs)   bands (ev):

   -13.2625 -13.2036 -11.6415 -11.5536   0.3097   0.4984   1.0045   1.3103
     1.8418   1.8905   1.8938   2.7206   2.8584   3.1680   3.2374   3.8605
     5.9249   6.8845   9.9295  11.6415  12.0763  13.4046  14.2576  14.6765
    15.2340  15.5696  16.3756  16.6519  17.2197  18.2091  18.2343  18.5827
    18.6153  19.0301  19.3633  20.5111  21.3244  22.1343  23.2667  23.4327
    23.5678  24.2305  24.2609  24.8134  25.8633  25.9351  26.4217  26.5872
    27.0366  27.3573  27.8162  28.0020  28.8434  29.1606  29.3907  30.0161
    30.1113  31.0257  31.4383  32.7634  33.8867  34.0174  35.1009  35.1419
    35.5897  36.1394  36.1955  36.5882  37.2815  38.1478

          k = 0.1733 0.0000 0.0000 (  5047 PWs)   bands (ev):

   -13.2997 -13.2400 -11.6454 -11.5553   0.4145   0.4556   1.1476   1.3492
     1.8832   1.9309   2.0390   2.7736   2.7811   3.1710   3.2382   3.7956
     5.7914   6.9092   9.7479  11.5796  12.1494  13.3674  14.4777  14.7314
    15.4015  15.5352  16.3778  16.7673  17.0916  18.2652  18.4435  18.4691
    18.5488  19.2624  19.3977  20.5259  21.2817  21.8787  23.4560  23.5868
    23.6535  23.9970  24.1732  24.5035  25.6554  25.7631  26.4656  26.5004
    26.9007  27.0831  27.6510  27.7766  28.7716  28.9849  29.2553  29.7871
    30.0073  31.1708  31.3865  32.7968  33.9330  34.1228  34.9089  35.3260
    35.7349  36.2404  36.2723  36.5620  36.9516  38.0480

          k = 0.1540 0.0000 0.0000 (  5043 PWs)   bands (ev):

   -13.3335 -13.2731 -11.6495 -11.5574   0.3946   0.5397   1.2816   1.3877
     1.9227   1.9694   2.1794   2.7105   2.8358   3.1730   3.2382   3.7232
     5.6548   6.9337   9.5741  11.5223  12.2036  13.2992  14.7216  14.8166
    15.5007  15.5729  16.3728  16.8833  16.9750  18.2829  18.3644  18.4851
    18.6832  19.4524  19.5088  20.5295  21.2525  21.5952  23.6435  23.6942
    23.7434  23.8509  24.0502  24.2058  25.4327  25.5989  26.4696  26.5123
    26.7366  26.8188  27.3063  27.7280  28.7504  28.7533  29.1776  29.5518
    29.8876  31.3100  31.3648  32.8294  34.0107  34.2165  34.6869  35.4775
    35.9036  36.3320  36.3551  36.5864  36.6743  37.9466

          k = 0.1348 0.0000 0.0000 (  5063 PWs)   bands (ev):

   -13.3637 -13.3027 -11.6536 -11.5596   0.3513   0.6495   1.3628   1.4693
     1.9595   2.0053   2.2966   2.6628   2.9036   3.1740   3.2373   3.6443
     5.5168   6.9571   9.4109  11.4704  12.2411  13.2227  14.8724  15.0208
    15.4670  15.7450  16.3621  16.8707  16.9993  18.2696  18.2844  18.4253
    18.9238  19.5244  19.7661  20.5206  21.2347  21.3036  23.5300  23.8245
    23.9005  23.9069  23.9232  23.9347  25.2025  25.4449  26.4752  26.5601
    26.5633  26.5687  26.9812  27.6746  28.5125  28.7615  29.1168  29.3204
    29.7696  31.2119  31.5860  32.8606  34.1067  34.2982  34.4673  35.5365
    36.0796  36.4142  36.4454  36.5034  36.6414  37.8507

          k = 0.1155 0.0000 0.0000 (  5067 PWs)   bands (ev):

   -13.3902 -13.3287 -11.6576 -11.5619   0.3121   0.7569   1.3876   1.5979
     1.9931   2.0381   2.3488   2.6785   2.9733   3.1743   3.2359   3.5604
     5.3796   6.9785   9.2610  11.4246  12.2651  13.1482  14.9727  15.2831
    15.4354  15.9142  16.3478  16.7791  17.1148  18.1857  18.2662  18.3721
    19.1602  19.6094  20.0286  20.4967  21.0218  21.2258  23.3509  23.6594
    23.7461  24.0080  24.0378  24.0553  24.9820  25.3038  26.3116  26.3685
    26.5438  26.6072  26.6925  27.6217  28.2785  28.7894  29.0628  29.0979
    29.6637  31.0979  31.8229  32.8897  34.2100  34.2667  34.3680  35.4423
    36.2513  36.4868  36.4937  36.5442  36.7146  37.7679

          k = 0.0963 0.0000 0.0000 (  5065 PWs)   bands (ev):

   -13.4128 -13.3509 -11.6612 -11.5641   0.2782   0.8594   1.3987   1.7297
     2.0229   2.0672   2.3232   2.7685   3.0410   3.1740   3.2341   3.4736
     5.2463   6.9974   9.1273  11.3851  12.2789  13.0807  15.0706  15.4068
    15.5398  16.0758  16.3317  16.7008  17.2284  18.1133  18.2265  18.3274
    19.3854  19.7023  20.2802  20.4510  20.7803  21.2232  23.1921  23.4188
    23.5958  24.0855  24.1754  24.2041  24.8109  25.1781  26.0606  26.2053
    26.4552  26.6015  26.6516  27.5738  28.0595  28.8231  28.8895  29.0141
    29.5745  30.9755  32.0682  32.9160  34.0933  34.3118  34.4260  35.2338
    36.4064  36.5500  36.6012  36.6513  36.7987  37.7078

          k = 0.0770 0.0000 0.0000 (  5071 PWs)   bands (ev):

   -13.4315 -13.3692 -11.6644 -11.5661   0.2500   0.9543   1.4045   1.8545
     2.0483   2.0920   2.2655   2.8849   3.1026   3.1733   3.2323   3.3872
     5.1209   7.0134   9.0129  11.3524  12.2856  13.0229  15.1624  15.3822
    15.7788  16.2243  16.3158  16.6363  17.3386  18.0532  18.1713  18.2877
    19.5898  19.7966  20.3054  20.5039  20.6817  21.2242  23.0578  23.2068
    23.4601  24.0199  24.3283  24.3418  24.7462  25.0706  25.8201  26.0573
    26.2720  26.6646  26.6915  27.5345  27.8626  28.7015  28.8558  28.9716
    29.5031  30.8541  32.3152  32.9385  33.9509  34.4046  34.4726  34.9831
    36.5337  36.6034  36.7493  36.7651  36.8852  37.6827

          k = 0.0578 0.0000 0.0000 (  5061 PWs)   bands (ev):

   -13.4461 -13.3836 -11.6669 -11.5677   0.2278   1.0380   1.4076   1.9663
     2.0687   2.1119   2.2034   2.9975   3.1544   3.1725   3.2305   3.3061
     5.0093   7.0261   8.9203  11.3267  12.2880  12.9765  15.2420  15.3622
    15.9885  16.3016  16.3530  16.5857  17.4430  18.0059  18.1087  18.2499
    19.7583  19.8846  20.1380  20.5040  20.8530  21.2267  22.9500  23.0298
    23.3471  23.8582  24.4603  24.4621  24.7752  24.9838  25.6090  25.9327
    26.1362  26.7205  26.7250  27.5060  27.6955  28.5416  28.8836  28.9364
    29.4490  30.7442  32.5555  32.9568  33.8406  34.4824  34.5082  34.7295
    36.6277  36.6465  36.8814  36.8965  36.9596  37.7051

          k = 0.0385 0.0000 0.0000 (  5061 PWs)   bands (ev):

   -13.4566 -13.3938 -11.6688 -11.5690   0.2118   1.1053   1.4091   2.0576
     2.0836   2.1265   2.1495   3.0907   3.1716   3.1915   3.2290   3.2391
     4.9192   7.0354   8.8522  11.3083  12.2882  12.9427  15.3037  15.3475
    16.1554  16.2905  16.4539  16.5494  17.5368  17.9719  18.0451  18.2161
    19.8506  19.9576  20.0142  20.4850  21.0528  21.2288  22.8712  22.8955
    23.2627  23.6772  24.5570  24.5640  24.8322  24.9199  25.4451  25.8371
    26.0419  26.7502  26.7624  27.4888  27.5667  28.4184  28.9043  28.9099
    29.4114  30.6562  32.7744  32.9703  33.7625  34.4913  34.5333  34.5479
    36.6782  36.6902  36.9910  37.0083  37.0205  37.7767

          k = 0.0193 0.0000 0.0000 (  5061 PWs)   bands (ev):

   -13.4629 -13.4000 -11.6700 -11.5697   0.2022   1.1499   1.4097   2.0928
     2.1115   2.1200   2.1354   3.1528   3.1711   3.1824   3.2247   3.2280
     4.8596   7.0409   8.8105  11.2971  12.2877  12.9222  15.3385  15.3427
    16.2643  16.2835  16.5188  16.5276  17.6098  17.9513  17.9907  18.1921
    19.8096  20.0063  20.0243  20.4785  21.1966  21.2300  22.8110  22.8239
    23.2106  23.5379  24.6184  24.6312  24.8777  24.8807  25.3417  25.7763
    25.9861  26.7659  26.7874  27.4808  27.4849  28.3401  28.8935  28.9169
    29.3893  30.5992  32.9424  32.9786  33.7159  34.3187  34.5482  34.5808
    36.6978  36.7257  37.0319  37.0762  37.1042  37.8732

          k = 0.0000 0.0000 0.0000 (  5043 PWs)   bands (ev):

   -13.4650 -13.4021 -11.6704 -11.5700   0.1989   1.1656   1.4099   2.0959
     2.0989   2.1384   2.1413   3.1666   3.1709   3.1748   3.2277   3.2315
     4.8386   7.0428   8.7965  11.2934  12.2875  12.9153  15.3355  15.3561
    16.2810  16.3023  16.5203  16.5413  17.6399  17.9444  17.9669  18.1833
    19.7782  20.0235  20.0427  20.4779  21.2303  21.2495  22.7822  22.8083
    23.1930  23.4849  24.6397  24.6547  24.8676  24.8945  25.3063  25.7553
    25.9675  26.7713  26.7956  27.4567  27.4786  28.3132  28.8880  28.9211
    29.3820  30.5795  32.9814  33.0093  33.7004  34.2491  34.5531  34.5932
    36.7044  36.7371  37.0384  37.1099  37.1341  37.9044

     Writing all to output data dir ./work/Al2O2.save/
 
     init_run     :      0.17s CPU      0.19s WALL (       1 calls)
     electrons    :    133.83s CPU    174.35s WALL (       1 calls)

     Called by init_run:
     wfcinit      :      0.00s CPU      0.00s WALL (       1 calls)
     potinit      :      0.08s CPU      0.09s WALL (       1 calls)
     hinit0       :      0.07s CPU      0.07s WALL (       1 calls)

     Called by electrons:
     c_bands      :    133.83s CPU    174.34s WALL (       1 calls)
     v_of_rho     :      0.00s CPU      0.00s WALL (       1 calls)
     newd         :      0.02s CPU      0.02s WALL (       1 calls)
     PAW_pot      :      0.08s CPU      0.09s WALL (       1 calls)

     Called by c_bands:
     init_us_2    :      0.02s CPU      0.02s WALL (      91 calls)
     init_us_2:cp :      0.02s CPU      0.02s WALL (      91 calls)
     cegterg      :    131.19s CPU    170.50s WALL (     349 calls)

     Called by *egterg:
     cdiaghg      :     29.95s CPU     30.74s WALL (    6168 calls)
     h_psi        :     65.73s CPU    102.70s WALL (    6517 calls)
     s_psi        :      3.28s CPU      3.69s WALL (    6517 calls)
     g_psi        :      0.15s CPU      0.16s WALL (    6077 calls)

     Called by h_psi:
     h_psi:calbec :      4.33s CPU      6.19s WALL (    6517 calls)
     vloc_psi     :     57.29s CPU     91.53s WALL (    6517 calls)
     add_vuspsi   :      3.80s CPU      4.65s WALL (    6517 calls)

     General routines
     calbec       :      4.32s CPU      6.17s WALL (    6517 calls)
     fft          :      0.00s CPU      0.00s WALL (      12 calls)
     fftw         :     55.27s CPU     88.43s WALL (  425342 calls)
     davcio       :      0.03s CPU      0.04s WALL (     182 calls)
 
     Parallel routines
 
     PWSCF        :   2m14.93s CPU   2m56.45s WALL

 
   This run was terminated on:  10:39:58  19Jun2023            

=------------------------------------------------------------------------------=
   JOB DONE.
=------------------------------------------------------------------------------=
