
     Program BANDS v.7.1 starts on 19Jun2023 at 10:40: 1 

     This program is part of the open-source Quantum ESPRESSO suite
     for quantum simulation of materials; please cite
         "P. Giannozzi et al., J. Phys.:Condens. Matter 21 395502 (2009);
         "P. Giannozzi et al., J. Phys.:Condens. Matter 29 465901 (2017);
         "P. Giannozzi et al., J. Chem. Phys. 152 154105 (2020);
          URL http://www.quantum-espresso.org", 
     in publications or presentations arising from this work. More details at
     http://www.quantum-espresso.org/quote

     Parallel version (MPI), running on    16 processors

     MPI processes distributed on     1 nodes
     R & G space division:  proc/nbgrp/npool/nimage =      16
     48582 MiB available memory on the printing compute node when the environment starts
 

     Reading xml data from directory:

     ./work/Al2O2.save/
     Message from routine volume:
     axis vectors are left-handed
     file Al.pbe-n-kjpaw_psl.1.0.0.UPF: wavefunction(s)  3S 3P renormalized
     file O.pbe-n-kjpaw_psl.1.0.0.UPF: wavefunction(s)  2S 2P renormalized

     IMPORTANT: XC functional enforced from input :
     Exchange-correlation= PBE
                           (   1   4   3   4   0   0   0)
     Any further DFT definition will be discarded
     Please, verify this is what you really want

 
     Parallelization info
     --------------------
     sticks:   dense  smooth     PW     G-vecs:    dense   smooth      PW
     Min          39      39     11                 2505     2505     399
     Max          40      40     12                 2508     2508     408
     Sum         625     625    187                40097    40097    6483
 
     Using Slab Decomposition
 

     Check: negative core charge=   -0.000006
     Reading collected, re-writing distributed wavefunctions
     high-symmetry point:  0.0000 0.0000 0.0000   x coordinate   0.0000
     high-symmetry point:  0.5775 0.3325 0.0000   x coordinate   0.6664
     high-symmetry point:  0.5775 0.0000 0.0000   x coordinate   0.9990
     high-symmetry point:  0.0000 0.0000 0.0000   x coordinate   1.5765

     Plottable bands (eV) written to file AC.bands.gnu
     Bands written to file AC.bands

 **************************************************************************

                    xk=(   0.00000,   0.00000,   0.00000  )

     point group C_s (m)    
     there are  2 classes
     the character table:

       E     s    
A'     1.00  1.00
A''    1.00 -1.00

     the symmetry operations in each class and the name of the first element:

     E        1
                                                                 
     s        2
                                                                 

     Band symmetry, C_s (m)     point group:

     e(  1 -  1) =    -13.46499  eV     1   --> A'             
     e(  2 -  2) =    -13.40209  eV     1   --> A'             
     e(  3 -  3) =    -11.67041  eV     1   --> A'             
     e(  4 -  4) =    -11.57000  eV     1   --> A'             
     e(  5 -  5) =      0.19893  eV     1   --> A'             
     e(  6 -  6) =      1.16559  eV     1   --> A'             
     e(  7 -  7) =      1.40986  eV     1   --> A'             
     e(  8 -  8) =      2.09586  eV     1   --> A''            
     e(  9 -  9) =      2.09888  eV     1   --> A'             
     e( 10 - 10) =      2.13840  eV     1   --> A''            
     e( 11 - 11) =      2.14126  eV     1   --> A'             
     e( 12 - 12) =      3.16660  eV     1   --> A'             
     e( 13 - 13) =      3.17092  eV     1   --> A''            
     e( 14 - 14) =      3.17477  eV     1   --> A'             
     e( 15 - 15) =      3.22770  eV     1   --> A''            
     e( 16 - 16) =      3.23152  eV     1   --> A'             
     e( 17 - 17) =      4.83857  eV     1   --> A'             
     e( 18 - 18) =      7.04282  eV     1   --> A'             
     e( 19 - 19) =      8.79645  eV     1   --> A'             
     e( 20 - 20) =     11.29343  eV     1   --> A'             
     e( 21 - 21) =     12.28746  eV     1   --> A'             
     e( 22 - 22) =     12.91530  eV     1   --> A'             
     e( 23 - 23) =     15.33549  eV     1   --> A''            
     e( 24 - 24) =     15.35611  eV     1   --> A'             
     e( 25 - 25) =     16.28105  eV     1   --> A''            
     e( 26 - 26) =     16.30229  eV     1   --> A'             
     e( 27 - 27) =     16.52029  eV     1   --> A''            
     e( 28 - 28) =     16.54135  eV     1   --> A'             
     e( 29 - 29) =     17.63985  eV     1   --> A'             
     e( 30 - 30) =     17.94441  eV     1   --> A''            
     e( 31 - 31) =     17.96687  eV     1   --> A'             
     e( 32 - 32) =     18.18335  eV     1   --> A'             
     e( 33 - 33) =     19.77822  eV     1   --> A'             
     e( 34 - 34) =     20.02351  eV     1   --> A''            
     e( 35 - 35) =     20.04272  eV     1   --> A'             
     e( 36 - 36) =     20.47786  eV     1   --> A'             
     e( 37 - 37) =     21.23034  eV     1   --> A''            
     e( 38 - 38) =     21.24946  eV     1   --> A'             
     e( 39 - 39) =     22.78217  eV     1   --> A''            
     e( 40 - 40) =     22.80835  eV     1   --> A'             
     e( 41 - 41) =     23.19298  eV     1   --> A'             
     e( 42 - 42) =     23.48491  eV     1   --> A'             
     e( 43 - 43) =     24.63975  eV     1   --> A''            
     e( 44 - 44) =     24.65470  eV     1   --> A'             
     e( 45 - 45) =     24.86756  eV     1   --> A''            
     e( 46 - 46) =     24.89445  eV     1   --> A'             
     e( 47 - 47) =     25.30634  eV     1   --> A'             
     e( 48 - 48) =     25.75527  eV     1   --> A'             
     e( 49 - 49) =     25.96754  eV     1   --> A'             
     e( 50 - 50) =     26.77125  eV     1   --> A''            
     e( 51 - 51) =     26.79562  eV     1   --> A'             
     e( 52 - 52) =     27.45673  eV     1   --> A''            
     e( 53 - 53) =     27.47861  eV     1   --> A'             
     e( 54 - 54) =     28.31324  eV     1   --> A'             
     e( 55 - 55) =     28.88795  eV     1   --> A''            
     e( 56 - 56) =     28.92114  eV     1   --> A'             
     e( 57 - 57) =     29.38201  eV     1   --> A'             
     e( 58 - 58) =     30.57948  eV     1   --> A'             
     e( 59 - 59) =     32.98138  eV     1   --> A''            
     e( 60 - 60) =     33.00927  eV     1   --> A'             
     e( 61 - 61) =     33.70043  eV     1   --> A'             
     e( 62 - 62) =     34.24908  eV     1   --> A'             
     e( 63 - 63) =     34.55313  eV     1   --> A''            
     e( 64 - 64) =     34.59316  eV     1   --> A'             
     e( 65 - 65) =     36.70442  eV     1   --> A''            
     e( 66 - 66) =     36.73712  eV     1   --> A'             
     e( 67 - 67) =     37.03843  eV     1   --> A'             
     e( 68 - 68) =     37.10989  eV     1   --> A''            
     e( 69 - 69) =     37.13409  eV     1   --> A'             
     e( 70 - 70) =     37.90445  eV     1   --> A''            

 **************************************************************************

 **************************************************************************

                    xk=(   0.01925,   0.01108,   0.00000  )

     point group C_1 (1)    
     there are  1 classes
     the character table:

       E    
A      1.00

     the symmetry operations in each class and the name of the first element:

     E        1
                                                                 

     Band symmetry, C_1 (1)     point group:

     e(  1 -  1) =    -13.46219  eV     1   --> A              
     e(  2 -  2) =    -13.39935  eV     1   --> A              
     e(  3 -  3) =    -11.66989  eV     1   --> A              
     e(  4 -  4) =    -11.56966  eV     1   --> A              
     e(  5 -  5) =      0.20322  eV     1   --> A              
     e(  6 -  6) =      1.14472  eV     1   --> A              
     e(  7 -  7) =      1.40963  eV     1   --> A              
     e(  8 -  8) =      2.09245  eV     1   --> A              
     e(  9 -  9) =      2.11017  eV     1   --> A              
     e( 10 - 10) =      2.11704  eV     1   --> A              
     e( 11 - 11) =      2.13520  eV     1   --> A              
     e( 12 - 12) =      3.14458  eV     1   --> A              
     e( 13 - 13) =      3.17225  eV     1   --> A              
     e( 14 - 14) =      3.18789  eV     1   --> A              
     e( 15 - 15) =      3.21971  eV     1   --> A              
     e( 16 - 16) =      3.23058  eV     1   --> A              
     e( 17 - 17) =      4.86640  eV     1   --> A              
     e( 18 - 18) =      7.04032  eV     1   --> A              
     e( 19 - 19) =      8.81516  eV     1   --> A              
     e( 20 - 20) =     11.29838  eV     1   --> A              
     e( 21 - 21) =     12.28780  eV     1   --> A              
     e( 22 - 22) =     12.92448  eV     1   --> A              
     e( 23 - 23) =     15.32837  eV     1   --> A              
     e( 24 - 24) =     15.34950  eV     1   --> A              
     e( 25 - 25) =     16.24485  eV     1   --> A              
     e( 26 - 26) =     16.29134  eV     1   --> A              
     e( 27 - 27) =     16.50375  eV     1   --> A              
     e( 28 - 28) =     16.53780  eV     1   --> A              
     e( 29 - 29) =     17.60001  eV     1   --> A              
     e( 30 - 30) =     17.95684  eV     1   --> A              
     e( 31 - 31) =     17.99510  eV     1   --> A              
     e( 32 - 32) =     18.19485  eV     1   --> A              
     e( 33 - 33) =     19.81815  eV     1   --> A              
     e( 34 - 34) =     20.00038  eV     1   --> A              
     e( 35 - 35) =     20.01964  eV     1   --> A              
     e( 36 - 36) =     20.47926  eV     1   --> A              
     e( 37 - 37) =     21.17379  eV     1   --> A              
     e( 38 - 38) =     21.23576  eV     1   --> A              
     e( 39 - 39) =     22.81379  eV     1   --> A              
     e( 40 - 40) =     22.83606  eV     1   --> A              
     e( 41 - 41) =     23.21635  eV     1   --> A              
     e( 42 - 42) =     23.55461  eV     1   --> A              
     e( 43 - 43) =     24.61059  eV     1   --> A              
     e( 44 - 44) =     24.62445  eV     1   --> A              
     e( 45 - 45) =     24.86091  eV     1   --> A              
     e( 46 - 46) =     24.89647  eV     1   --> A              
     e( 47 - 47) =     25.35317  eV     1   --> A              
     e( 48 - 48) =     25.78314  eV     1   --> A              
     e( 49 - 49) =     25.99214  eV     1   --> A              
     e( 50 - 50) =     26.76316  eV     1   --> A              
     e( 51 - 51) =     26.78574  eV     1   --> A              
     e( 52 - 52) =     27.47292  eV     1   --> A              
     e( 53 - 53) =     27.50283  eV     1   --> A              
     e( 54 - 54) =     28.34881  eV     1   --> A              
     e( 55 - 55) =     28.89100  eV     1   --> A              
     e( 56 - 56) =     28.91991  eV     1   --> A              
     e( 57 - 57) =     29.39169  eV     1   --> A              
     e( 58 - 58) =     30.60559  eV     1   --> A              
     e( 59 - 59) =     32.91319  eV     1   --> A              
     e( 60 - 60) =     32.98655  eV     1   --> A              
     e( 61 - 61) =     33.72097  eV     1   --> A              
     e( 62 - 62) =     34.33988  eV     1   --> A              
     e( 63 - 63) =     34.54369  eV     1   --> A              
     e( 64 - 64) =     34.57961  eV     1   --> A              
     e( 65 - 65) =     36.69355  eV     1   --> A              
     e( 66 - 66) =     36.72370  eV     1   --> A              
     e( 67 - 67) =     37.02976  eV     1   --> A              
     e( 68 - 68) =     37.06608  eV     1   --> A              
     e( 69 - 69) =     37.09428  eV     1   --> A              
     e( 70 - 70) =     37.85250  eV     1   --> A              

 **************************************************************************

 **************************************************************************

                    xk=(   0.03850,   0.02217,   0.00000  )

     Band symmetry, C_1 (1)     point group:

     e(  1 -  1) =    -13.45379  eV     1   --> A              
     e(  2 -  2) =    -13.39111  eV     1   --> A              
     e(  3 -  3) =    -11.66833  eV     1   --> A              
     e(  4 -  4) =    -11.56865  eV     1   --> A              
     e(  5 -  5) =      0.21603  eV     1   --> A              
     e(  6 -  6) =      1.08659  eV     1   --> A              
     e(  7 -  7) =      1.40875  eV     1   --> A              
     e(  8 -  8) =      2.03166  eV     1   --> A              
     e(  9 -  9) =      2.07986  eV     1   --> A              
     e( 10 - 10) =      2.12304  eV     1   --> A              
     e( 11 - 11) =      2.16466  eV     1   --> A              
     e( 12 - 12) =      3.06363  eV     1   --> A              
     e( 13 - 13) =      3.17297  eV     1   --> A              
     e( 14 - 14) =      3.18920  eV     1   --> A              
     e( 15 - 15) =      3.21755  eV     1   --> A              
     e( 16 - 16) =      3.26233  eV     1   --> A              
     e( 17 - 17) =      4.94415  eV     1   --> A              
     e( 18 - 18) =      7.03289  eV     1   --> A              
     e( 19 - 19) =      8.87053  eV     1   --> A              
     e( 20 - 20) =     11.31320  eV     1   --> A              
     e( 21 - 21) =     12.28829  eV     1   --> A              
     e( 22 - 22) =     12.95181  eV     1   --> A              
     e( 23 - 23) =     15.28172  eV     1   --> A              
     e( 24 - 24) =     15.35634  eV     1   --> A              
     e( 25 - 25) =     16.10594  eV     1   --> A              
     e( 26 - 26) =     16.29767  eV     1   --> A              
     e( 27 - 27) =     16.42117  eV     1   --> A              
     e( 28 - 28) =     16.56436  eV     1   --> A              
     e( 29 - 29) =     17.50826  eV     1   --> A              
     e( 30 - 30) =     17.98537  eV     1   --> A              
     e( 31 - 31) =     18.06126  eV     1   --> A              
     e( 32 - 32) =     18.22553  eV     1   --> A              
     e( 33 - 33) =     19.83771  eV     1   --> A              
     e( 34 - 34) =     19.92998  eV     1   --> A              
     e( 35 - 35) =     20.04366  eV     1   --> A              
     e( 36 - 36) =     20.49115  eV     1   --> A              
     e( 37 - 37) =     20.99130  eV     1   --> A              
     e( 38 - 38) =     21.23190  eV     1   --> A              
     e( 39 - 39) =     22.88826  eV     1   --> A              
     e( 40 - 40) =     22.93652  eV     1   --> A              
     e( 41 - 41) =     23.28519  eV     1   --> A              
     e( 42 - 42) =     23.73222  eV     1   --> A              
     e( 43 - 43) =     24.52653  eV     1   --> A              
     e( 44 - 44) =     24.54002  eV     1   --> A              
     e( 45 - 45) =     24.80139  eV     1   --> A              
     e( 46 - 46) =     24.94898  eV     1   --> A              
     e( 47 - 47) =     25.48981  eV     1   --> A              
     e( 48 - 48) =     25.86302  eV     1   --> A              
     e( 49 - 49) =     26.06624  eV     1   --> A              
     e( 50 - 50) =     26.73695  eV     1   --> A              
     e( 51 - 51) =     26.75795  eV     1   --> A              
     e( 52 - 52) =     27.48728  eV     1   --> A              
     e( 53 - 53) =     27.60766  eV     1   --> A              
     e( 54 - 54) =     28.45138  eV     1   --> A              
     e( 55 - 55) =     28.88623  eV     1   --> A              
     e( 56 - 56) =     28.92972  eV     1   --> A              
     e( 57 - 57) =     29.42111  eV     1   --> A              
     e( 58 - 58) =     30.68003  eV     1   --> A              
     e( 59 - 59) =     32.70429  eV     1   --> A              
     e( 60 - 60) =     32.97394  eV     1   --> A              
     e( 61 - 61) =     33.78293  eV     1   --> A              
     e( 62 - 62) =     34.50651  eV     1   --> A              
     e( 63 - 63) =     34.53785  eV     1   --> A              
     e( 64 - 64) =     34.57186  eV     1   --> A              
     e( 65 - 65) =     36.65670  eV     1   --> A              
     e( 66 - 66) =     36.68642  eV     1   --> A              
     e( 67 - 67) =     36.94661  eV     1   --> A              
     e( 68 - 68) =     36.99670  eV     1   --> A              
     e( 69 - 69) =     36.99945  eV     1   --> A              
     e( 70 - 70) =     37.74577  eV     1   --> A              

 **************************************************************************

 **************************************************************************

                    xk=(   0.05775,   0.03325,   0.00000  )

     Band symmetry, C_1 (1)     point group:

     e(  1 -  1) =    -13.43984  eV     1   --> A              
     e(  2 -  2) =    -13.37744  eV     1   --> A              
     e(  3 -  3) =    -11.66582  eV     1   --> A              
     e(  4 -  4) =    -11.56704  eV     1   --> A              
     e(  5 -  5) =      0.23724  eV     1   --> A              
     e(  6 -  6) =      1.00091  eV     1   --> A              
     e(  7 -  7) =      1.40647  eV     1   --> A              
     e(  8 -  8) =      1.91702  eV     1   --> A              
     e(  9 -  9) =      2.05759  eV     1   --> A              
     e( 10 - 10) =      2.10232  eV     1   --> A              
     e( 11 - 11) =      2.23500  eV     1   --> A              
     e( 12 - 12) =      2.94507  eV     1   --> A              
     e( 13 - 13) =      3.14229  eV     1   --> A              
     e( 14 - 14) =      3.17410  eV     1   --> A              
     e( 15 - 15) =      3.21794  eV     1   --> A              
     e( 16 - 16) =      3.34619  eV     1   --> A              
     e( 17 - 17) =      5.05881  eV     1   --> A              
     e( 18 - 18) =      7.02065  eV     1   --> A              
     e( 19 - 19) =      8.96032  eV     1   --> A              
     e( 20 - 20) =     11.33779  eV     1   --> A              
     e( 21 - 21) =     12.28743  eV     1   --> A              
     e( 22 - 22) =     12.99657  eV     1   --> A              
     e( 23 - 23) =     15.20600  eV     1   --> A              
     e( 24 - 24) =     15.36692  eV     1   --> A              
     e( 25 - 25) =     15.90299  eV     1   --> A              
     e( 26 - 26) =     16.29330  eV     1   --> A              
     e( 27 - 27) =     16.30576  eV     1   --> A              
     e( 28 - 28) =     16.60992  eV     1   --> A              
     e( 29 - 29) =     17.39574  eV     1   --> A              
     e( 30 - 30) =     18.02986  eV     1   --> A              
     e( 31 - 31) =     18.13611  eV     1   --> A              
     e( 32 - 32) =     18.26636  eV     1   --> A              
     e( 33 - 33) =     19.71810  eV     1   --> A              
     e( 34 - 34) =     19.79652  eV     1   --> A              
     e( 35 - 35) =     20.23718  eV     1   --> A              
     e( 36 - 36) =     20.52125  eV     1   --> A              
     e( 37 - 37) =     20.74908  eV     1   --> A              
     e( 38 - 38) =     21.22380  eV     1   --> A              
     e( 39 - 39) =     23.00648  eV     1   --> A              
     e( 40 - 40) =     23.09600  eV     1   --> A              
     e( 41 - 41) =     23.39568  eV     1   --> A              
     e( 42 - 42) =     23.95728  eV     1   --> A              
     e( 43 - 43) =     24.39811  eV     1   --> A              
     e( 44 - 44) =     24.41337  eV     1   --> A              
     e( 45 - 45) =     24.71070  eV     1   --> A              
     e( 46 - 46) =     25.04857  eV     1   --> A              
     e( 47 - 47) =     25.70611  eV     1   --> A              
     e( 48 - 48) =     25.98691  eV     1   --> A              
     e( 49 - 49) =     26.19071  eV     1   --> A              
     e( 50 - 50) =     26.68910  eV     1   --> A              
     e( 51 - 51) =     26.71824  eV     1   --> A              
     e( 52 - 52) =     27.51300  eV     1   --> A              
     e( 53 - 53) =     27.77270  eV     1   --> A              
     e( 54 - 54) =     28.61030  eV     1   --> A              
     e( 55 - 55) =     28.86587  eV     1   --> A              
     e( 56 - 56) =     28.95779  eV     1   --> A              
     e( 57 - 57) =     29.47135  eV     1   --> A              
     e( 58 - 58) =     30.79228  eV     1   --> A              
     e( 59 - 59) =     32.44056  eV     1   --> A              
     e( 60 - 60) =     32.95493  eV     1   --> A              
     e( 61 - 61) =     33.88720  eV     1   --> A              
     e( 62 - 62) =     34.43547  eV     1   --> A              
     e( 63 - 63) =     34.50573  eV     1   --> A              
     e( 64 - 64) =     34.84558  eV     1   --> A              
     e( 65 - 65) =     36.58890  eV     1   --> A              
     e( 66 - 66) =     36.62466  eV     1   --> A              
     e( 67 - 67) =     36.77477  eV     1   --> A              
     e( 68 - 68) =     36.88833  eV     1   --> A              
     e( 69 - 69) =     36.92997  eV     1   --> A              
     e( 70 - 70) =     37.68503  eV     1   --> A              

 **************************************************************************

 **************************************************************************

                    xk=(   0.07701,   0.04434,   0.00000  )

     Band symmetry, C_1 (1)     point group:

     e(  1 -  1) =    -13.42046  eV     1   --> A              
     e(  2 -  2) =    -13.35843  eV     1   --> A              
     e(  3 -  3) =    -11.66247  eV     1   --> A              
     e(  4 -  4) =    -11.56492  eV     1   --> A              
     e(  5 -  5) =      0.26666  eV     1   --> A              
     e(  6 -  6) =      0.89713  eV     1   --> A              
     e(  7 -  7) =      1.40148  eV     1   --> A              
     e(  8 -  8) =      1.78102  eV     1   --> A              
     e(  9 -  9) =      2.02332  eV     1   --> A              
     e( 10 - 10) =      2.07237  eV     1   --> A              
     e( 11 - 11) =      2.31817  eV     1   --> A              
     e( 12 - 12) =      2.80476  eV     1   --> A              
     e( 13 - 13) =      3.08371  eV     1   --> A              
     e( 14 - 14) =      3.17532  eV     1   --> A              
     e( 15 - 15) =      3.21398  eV     1   --> A              
     e( 16 - 16) =      3.44406  eV     1   --> A              
     e( 17 - 17) =      5.19724  eV     1   --> A              
     e( 18 - 18) =      7.00389  eV     1   --> A              
     e( 19 - 19) =      9.08126  eV     1   --> A              
     e( 20 - 20) =     11.37193  eV     1   --> A              
     e( 21 - 21) =     12.28284  eV     1   --> A              
     e( 22 - 22) =     13.05754  eV     1   --> A              
     e( 23 - 23) =     15.11279  eV     1   --> A              
     e( 24 - 24) =     15.35157  eV     1   --> A              
     e( 25 - 25) =     15.68596  eV     1   --> A              
     e( 26 - 26) =     16.13451  eV     1   --> A              
     e( 27 - 27) =     16.30972  eV     1   --> A              
     e( 28 - 28) =     16.66860  eV     1   --> A              
     e( 29 - 29) =     17.27831  eV     1   --> A              
     e( 30 - 30) =     18.08952  eV     1   --> A              
     e( 31 - 31) =     18.20888  eV     1   --> A              
     e( 32 - 32) =     18.30822  eV     1   --> A              
     e( 33 - 33) =     19.55532  eV     1   --> A              
     e( 34 - 34) =     19.60929  eV     1   --> A              
     e( 35 - 35) =     20.45136  eV     1   --> A              
     e( 36 - 36) =     20.48917  eV     1   --> A              
     e( 37 - 37) =     20.61078  eV     1   --> A              
     e( 38 - 38) =     21.21287  eV     1   --> A              
     e( 39 - 39) =     23.17186  eV     1   --> A              
     e( 40 - 40) =     23.29097  eV     1   --> A              
     e( 41 - 41) =     23.54112  eV     1   --> A              
     e( 42 - 42) =     24.18033  eV     1   --> A              
     e( 43 - 43) =     24.23120  eV     1   --> A              
     e( 44 - 44) =     24.26337  eV     1   --> A              
     e( 45 - 45) =     24.60705  eV     1   --> A              
     e( 46 - 46) =     25.19949  eV     1   --> A              
     e( 47 - 47) =     25.98885  eV     1   --> A              
     e( 48 - 48) =     26.14602  eV     1   --> A              
     e( 49 - 49) =     26.36661  eV     1   --> A              
     e( 50 - 50) =     26.62703  eV     1   --> A              
     e( 51 - 51) =     26.66873  eV     1   --> A              
     e( 52 - 52) =     27.55369  eV     1   --> A              
     e( 53 - 53) =     27.98128  eV     1   --> A              
     e( 54 - 54) =     28.81225  eV     1   --> A              
     e( 55 - 55) =     28.84019  eV     1   --> A              
     e( 56 - 56) =     28.99474  eV     1   --> A              
     e( 57 - 57) =     29.54378  eV     1   --> A              
     e( 58 - 58) =     30.92764  eV     1   --> A              
     e( 59 - 59) =     32.15807  eV     1   --> A              
     e( 60 - 60) =     32.92811  eV     1   --> A              
     e( 61 - 61) =     34.03482  eV     1   --> A              
     e( 62 - 62) =     34.33256  eV     1   --> A              
     e( 63 - 63) =     34.46115  eV     1   --> A              
     e( 64 - 64) =     35.14724  eV     1   --> A              
     e( 65 - 65) =     36.49350  eV     1   --> A              
     e( 66 - 66) =     36.52478  eV     1   --> A              
     e( 67 - 67) =     36.57366  eV     1   --> A              
     e( 68 - 68) =     36.78632  eV     1   --> A              
     e( 69 - 69) =     36.84286  eV     1   --> A              
     e( 70 - 70) =     37.69144  eV     1   --> A              

 **************************************************************************

 **************************************************************************

                    xk=(   0.09626,   0.05542,   0.00000  )

     Band symmetry, C_1 (1)     point group:

     e(  1 -  1) =    -13.39574  eV     1   --> A              
     e(  2 -  2) =    -13.33418  eV     1   --> A              
     e(  3 -  3) =    -11.65843  eV     1   --> A              
     e(  4 -  4) =    -11.56245  eV     1   --> A              
     e(  5 -  5) =      0.30390  eV     1   --> A              
     e(  6 -  6) =      0.78233  eV     1   --> A              
     e(  7 -  7) =      1.39188  eV     1   --> A              
     e(  8 -  8) =      1.63301  eV     1   --> A              
     e(  9 -  9) =      1.97329  eV     1   --> A              
     e( 10 - 10) =      2.03264  eV     1   --> A              
     e( 11 - 11) =      2.40785  eV     1   --> A              
     e( 12 - 12) =      2.65737  eV     1   --> A              
     e( 13 - 13) =      3.01970  eV     1   --> A              
     e( 14 - 14) =      3.17641  eV     1   --> A              
     e( 15 - 15) =      3.20783  eV     1   --> A              
     e( 16 - 16) =      3.54468  eV     1   --> A              
     e( 17 - 17) =      5.34941  eV     1   --> A              
     e( 18 - 18) =      6.98303  eV     1   --> A              
     e( 19 - 19) =      9.22939  eV     1   --> A              
     e( 20 - 20) =     11.41542  eV     1   --> A              
     e( 21 - 21) =     12.27143  eV     1   --> A              
     e( 22 - 22) =     13.13278  eV     1   --> A              
     e( 23 - 23) =     15.01096  eV     1   --> A              
     e( 24 - 24) =     15.21221  eV     1   --> A              
     e( 25 - 25) =     15.56981  eV     1   --> A              
     e( 26 - 26) =     15.95629  eV     1   --> A              
     e( 27 - 27) =     16.30490  eV     1   --> A              
     e( 28 - 28) =     16.72776  eV     1   --> A              
     e( 29 - 29) =     17.17312  eV     1   --> A              
     e( 30 - 30) =     18.16111  eV     1   --> A              
     e( 31 - 31) =     18.27656  eV     1   --> A              
     e( 32 - 32) =     18.34596  eV     1   --> A              
     e( 33 - 33) =     19.36962  eV     1   --> A              
     e( 34 - 34) =     19.39142  eV     1   --> A              
     e( 35 - 35) =     20.20548  eV     1   --> A              
     e( 36 - 36) =     20.67902  eV     1   --> A              
     e( 37 - 37) =     20.74113  eV     1   --> A              
     e( 38 - 38) =     21.21700  eV     1   --> A              
     e( 39 - 39) =     23.38034  eV     1   --> A              
     e( 40 - 40) =     23.50367  eV     1   --> A              
     e( 41 - 41) =     23.71157  eV     1   --> A              
     e( 42 - 42) =     24.03152  eV     1   --> A              
     e( 43 - 43) =     24.10587  eV     1   --> A              
     e( 44 - 44) =     24.37565  eV     1   --> A              
     e( 45 - 45) =     24.50795  eV     1   --> A              
     e( 46 - 46) =     25.39981  eV     1   --> A              
     e( 47 - 47) =     26.32473  eV     1   --> A              
     e( 48 - 48) =     26.32748  eV     1   --> A              
     e( 49 - 49) =     26.56716  eV     1   --> A              
     e( 50 - 50) =     26.59428  eV     1   --> A              
     e( 51 - 51) =     26.61257  eV     1   --> A              
     e( 52 - 52) =     27.60744  eV     1   --> A              
     e( 53 - 53) =     28.21891  eV     1   --> A              
     e( 54 - 54) =     28.81779  eV     1   --> A              
     e( 55 - 55) =     29.03567  eV     1   --> A              
     e( 56 - 56) =     29.04435  eV     1   --> A              
     e( 57 - 57) =     29.63916  eV     1   --> A              
     e( 58 - 58) =     31.07016  eV     1   --> A              
     e( 59 - 59) =     31.87243  eV     1   --> A              
     e( 60 - 60) =     32.89312  eV     1   --> A              
     e( 61 - 61) =     34.20725  eV     1   --> A              
     e( 62 - 62) =     34.22636  eV     1   --> A              
     e( 63 - 63) =     34.40996  eV     1   --> A              
     e( 64 - 64) =     35.44174  eV     1   --> A              
     e( 65 - 65) =     36.36115  eV     1   --> A              
     e( 66 - 66) =     36.36192  eV     1   --> A              
     e( 67 - 67) =     36.39570  eV     1   --> A              
     e( 68 - 68) =     36.71576  eV     1   --> A              
     e( 69 - 69) =     36.76158  eV     1   --> A              
     e( 70 - 70) =     37.75097  eV     1   --> A              

 **************************************************************************

 **************************************************************************

                    xk=(   0.11551,   0.06651,   0.00000  )

     Band symmetry, C_1 (1)     point group:

     e(  1 -  1) =    -13.36585  eV     1   --> A              
     e(  2 -  2) =    -13.30488  eV     1   --> A              
     e(  3 -  3) =    -11.65393  eV     1   --> A              
     e(  4 -  4) =    -11.55981  eV     1   --> A              
     e(  5 -  5) =      0.34847  eV     1   --> A              
     e(  6 -  6) =      0.66144  eV     1   --> A              
     e(  7 -  7) =      1.37482  eV     1   --> A              
     e(  8 -  8) =      1.47913  eV     1   --> A              
     e(  9 -  9) =      1.90202  eV     1   --> A              
     e( 10 - 10) =      1.98339  eV     1   --> A              
     e( 11 - 11) =      2.49949  eV     1   --> A              
     e( 12 - 12) =      2.51606  eV     1   --> A              
     e( 13 - 13) =      2.95666  eV     1   --> A              
     e( 14 - 14) =      3.17724  eV     1   --> A              
     e( 15 - 15) =      3.19950  eV     1   --> A              
     e( 16 - 16) =      3.64236  eV     1   --> A              
     e( 17 - 17) =      5.50859  eV     1   --> A              
     e( 18 - 18) =      6.95857  eV     1   --> A              
     e( 19 - 19) =      9.40051  eV     1   --> A              
     e( 20 - 20) =     11.46799  eV     1   --> A              
     e( 21 - 21) =     12.24979  eV     1   --> A              
     e( 22 - 22) =     13.21919  eV     1   --> A              
     e( 23 - 23) =     14.90757  eV     1   --> A              
     e( 24 - 24) =     14.94869  eV     1   --> A              
     e( 25 - 25) =     15.56667  eV     1   --> A              
     e( 26 - 26) =     15.76768  eV     1   --> A              
     e( 27 - 27) =     16.28748  eV     1   --> A              
     e( 28 - 28) =     16.75091  eV     1   --> A              
     e( 29 - 29) =     17.11880  eV     1   --> A              
     e( 30 - 30) =     18.23463  eV     1   --> A              
     e( 31 - 31) =     18.33862  eV     1   --> A              
     e( 32 - 32) =     18.38371  eV     1   --> A              
     e( 33 - 33) =     19.11050  eV     1   --> A              
     e( 34 - 34) =     19.21965  eV     1   --> A              
     e( 35 - 35) =     19.98116  eV     1   --> A              
     e( 36 - 36) =     20.77241  eV     1   --> A              
     e( 37 - 37) =     20.90108  eV     1   --> A              
     e( 38 - 38) =     21.30706  eV     1   --> A              
     e( 39 - 39) =     23.62476  eV     1   --> A              
     e( 40 - 40) =     23.71558  eV     1   --> A              
     e( 41 - 41) =     23.80682  eV     1   --> A              
     e( 42 - 42) =     23.89482  eV     1   --> A              
     e( 43 - 43) =     23.94915  eV     1   --> A              
     e( 44 - 44) =     24.43492  eV     1   --> A              
     e( 45 - 45) =     24.54248  eV     1   --> A              
     e( 46 - 46) =     25.63366  eV     1   --> A              
     e( 47 - 47) =     26.46111  eV     1   --> A              
     e( 48 - 48) =     26.53073  eV     1   --> A              
     e( 49 - 49) =     26.60714  eV     1   --> A              
     e( 50 - 50) =     26.70155  eV     1   --> A              
     e( 51 - 51) =     26.87236  eV     1   --> A              
     e( 52 - 52) =     27.67072  eV     1   --> A              
     e( 53 - 53) =     28.47145  eV     1   --> A              
     e( 54 - 54) =     28.81070  eV     1   --> A              
     e( 55 - 55) =     29.07760  eV     1   --> A              
     e( 56 - 56) =     29.29567  eV     1   --> A              
     e( 57 - 57) =     29.75619  eV     1   --> A              
     e( 58 - 58) =     31.20485  eV     1   --> A              
     e( 59 - 59) =     31.59140  eV     1   --> A              
     e( 60 - 60) =     32.85015  eV     1   --> A              
     e( 61 - 61) =     34.06755  eV     1   --> A              
     e( 62 - 62) =     34.35494  eV     1   --> A              
     e( 63 - 63) =     34.46054  eV     1   --> A              
     e( 64 - 64) =     35.69007  eV     1   --> A              
     e( 65 - 65) =     36.15183  eV     1   --> A              
     e( 66 - 66) =     36.18703  eV     1   --> A              
     e( 67 - 67) =     36.26882  eV     1   --> A              
     e( 68 - 68) =     36.69070  eV     1   --> A              
     e( 69 - 69) =     36.71390  eV     1   --> A              
     e( 70 - 70) =     37.84362  eV     1   --> A              

 **************************************************************************

 **************************************************************************

                    xk=(   0.13476,   0.07759,   0.00000  )

     Band symmetry, C_1 (1)     point group:

     e(  1 -  1) =    -13.33099  eV     1   --> A              
     e(  2 -  2) =    -13.27070  eV     1   --> A              
     e(  3 -  3) =    -11.64918  eV     1   --> A              
     e(  4 -  4) =    -11.55721  eV     1   --> A              
     e(  5 -  5) =      0.39963  eV     1   --> A              
     e(  6 -  6) =      0.53806  eV     1   --> A              
     e(  7 -  7) =      1.32353  eV     1   --> A              
     e(  8 -  8) =      1.34669  eV     1   --> A              
     e(  9 -  9) =      1.80422  eV     1   --> A              
     e( 10 - 10) =      1.92619  eV     1   --> A              
     e( 11 - 11) =      2.39136  eV     1   --> A              
     e( 12 - 12) =      2.59008  eV     1   --> A              
     e( 13 - 13) =      2.90042  eV     1   --> A              
     e( 14 - 14) =      3.17789  eV     1   --> A              
     e( 15 - 15) =      3.18878  eV     1   --> A              
     e( 16 - 16) =      3.73372  eV     1   --> A              
     e( 17 - 17) =      5.67035  eV     1   --> A              
     e( 18 - 18) =      6.93131  eV     1   --> A              
     e( 19 - 19) =      9.59052  eV     1   --> A              
     e( 20 - 20) =     11.52938  eV     1   --> A              
     e( 21 - 21) =     12.21469  eV     1   --> A              
     e( 22 - 22) =     13.31109  eV     1   --> A              
     e( 23 - 23) =     14.65515  eV     1   --> A              
     e( 24 - 24) =     14.80925  eV     1   --> A              
     e( 25 - 25) =     15.57560  eV     1   --> A              
     e( 26 - 26) =     15.59009  eV     1   --> A              
     e( 27 - 27) =     16.25468  eV     1   --> A              
     e( 28 - 28) =     16.69507  eV     1   --> A              
     e( 29 - 29) =     17.15929  eV     1   --> A              
     e( 30 - 30) =     18.28306  eV     1   --> A              
     e( 31 - 31) =     18.39552  eV     1   --> A              
     e( 32 - 32) =     18.44473  eV     1   --> A              
     e( 33 - 33) =     18.82492  eV     1   --> A              
     e( 34 - 34) =     19.06925  eV     1   --> A              
     e( 35 - 35) =     19.79939  eV     1   --> A              
     e( 36 - 36) =     20.87800  eV     1   --> A              
     e( 37 - 37) =     20.91424  eV     1   --> A              
     e( 38 - 38) =     21.52456  eV     1   --> A              
     e( 39 - 39) =     23.56735  eV     1   --> A              
     e( 40 - 40) =     23.79907  eV     1   --> A              
     e( 41 - 41) =     23.88925  eV     1   --> A              
     e( 42 - 42) =     23.89723  eV     1   --> A              
     e( 43 - 43) =     24.07133  eV     1   --> A              
     e( 44 - 44) =     24.42853  eV     1   --> A              
     e( 45 - 45) =     24.69367  eV     1   --> A              
     e( 46 - 46) =     25.87966  eV     1   --> A              
     e( 47 - 47) =     26.40975  eV     1   --> A              
     e( 48 - 48) =     26.53535  eV     1   --> A              
     e( 49 - 49) =     26.77834  eV     1   --> A              
     e( 50 - 50) =     27.10803  eV     1   --> A              
     e( 51 - 51) =     27.19737  eV     1   --> A              
     e( 52 - 52) =     27.74026  eV     1   --> A              
     e( 53 - 53) =     28.71026  eV     1   --> A              
     e( 54 - 54) =     28.85109  eV     1   --> A              
     e( 55 - 55) =     29.11843  eV     1   --> A              
     e( 56 - 56) =     29.55756  eV     1   --> A              
     e( 57 - 57) =     29.88909  eV     1   --> A              
     e( 58 - 58) =     31.31917  eV     1   --> A              
     e( 59 - 59) =     31.31956  eV     1   --> A              
     e( 60 - 60) =     32.80076  eV     1   --> A              
     e( 61 - 61) =     33.92300  eV     1   --> A              
     e( 62 - 62) =     34.29993  eV     1   --> A              
     e( 63 - 63) =     34.73263  eV     1   --> A              
     e( 64 - 64) =     35.83791  eV     1   --> A              
     e( 65 - 65) =     35.95889  eV     1   --> A              
     e( 66 - 66) =     36.00114  eV     1   --> A              
     e( 67 - 67) =     36.14265  eV     1   --> A              
     e( 68 - 68) =     36.62425  eV     1   --> A              
     e( 69 - 69) =     36.83459  eV     1   --> A              
     e( 70 - 70) =     37.95353  eV     1   --> A              

 **************************************************************************

 **************************************************************************

                    xk=(   0.15401,   0.08868,   0.00000  )

     Band symmetry, C_1 (1)     point group:

     e(  1 -  1) =    -13.29139  eV     1   --> A              
     e(  2 -  2) =    -13.23186  eV     1   --> A              
     e(  3 -  3) =    -11.64447  eV     1   --> A              
     e(  4 -  4) =    -11.55489  eV     1   --> A              
     e(  5 -  5) =      0.41470  eV     1   --> A              
     e(  6 -  6) =      0.45646  eV     1   --> A              
     e(  7 -  7) =      1.16943  eV     1   --> A              
     e(  8 -  8) =      1.30316  eV     1   --> A              
     e(  9 -  9) =      1.67920  eV     1   --> A              
     e( 10 - 10) =      1.86436  eV     1   --> A              
     e( 11 - 11) =      2.28879  eV     1   --> A              
     e( 12 - 12) =      2.67611  eV     1   --> A              
     e( 13 - 13) =      2.85543  eV     1   --> A              
     e( 14 - 14) =      3.17384  eV     1   --> A              
     e( 15 - 15) =      3.18082  eV     1   --> A              
     e( 16 - 16) =      3.81677  eV     1   --> A              
     e( 17 - 17) =      5.83186  eV     1   --> A              
     e( 18 - 18) =      6.90215  eV     1   --> A              
     e( 19 - 19) =      9.79557  eV     1   --> A              
     e( 20 - 20) =     11.59933  eV     1   --> A              
     e( 21 - 21) =     12.16369  eV     1   --> A              
     e( 22 - 22) =     13.39538  eV     1   --> A              
     e( 23 - 23) =     14.37287  eV     1   --> A              
     e( 24 - 24) =     14.71697  eV     1   --> A              
     e( 25 - 25) =     15.38541  eV     1   --> A              
     e( 26 - 26) =     15.61318  eV     1   --> A              
     e( 27 - 27) =     16.20525  eV     1   --> A              
     e( 28 - 28) =     16.58624  eV     1   --> A              
     e( 29 - 29) =     17.26854  eV     1   --> A              
     e( 30 - 30) =     18.28832  eV     1   --> A              
     e( 31 - 31) =     18.44867  eV     1   --> A              
     e( 32 - 32) =     18.52944  eV     1   --> A              
     e( 33 - 33) =     18.54413  eV     1   --> A              
     e( 34 - 34) =     18.94367  eV     1   --> A              
     e( 35 - 35) =     19.66644  eV     1   --> A              
     e( 36 - 36) =     20.86110  eV     1   --> A              
     e( 37 - 37) =     20.99377  eV     1   --> A              
     e( 38 - 38) =     21.77969  eV     1   --> A              
     e( 39 - 39) =     23.31628  eV     1   --> A              
     e( 40 - 40) =     23.66070  eV     1   --> A              
     e( 41 - 41) =     23.97618  eV     1   --> A              
     e( 42 - 42) =     24.17675  eV     1   --> A              
     e( 43 - 43) =     24.22534  eV     1   --> A              
     e( 44 - 44) =     24.54837  eV     1   --> A              
     e( 45 - 45) =     24.84523  eV     1   --> A              
     e( 46 - 46) =     26.12246  eV     1   --> A              
     e( 47 - 47) =     26.31606  eV     1   --> A              
     e( 48 - 48) =     26.59975  eV     1   --> A              
     e( 49 - 49) =     26.96547  eV     1   --> A              
     e( 50 - 50) =     27.53315  eV     1   --> A              
     e( 51 - 51) =     27.56413  eV     1   --> A              
     e( 52 - 52) =     27.81357  eV     1   --> A              
     e( 53 - 53) =     28.84409  eV     1   --> A              
     e( 54 - 54) =     29.03973  eV     1   --> A              
     e( 55 - 55) =     29.15682  eV     1   --> A              
     e( 56 - 56) =     29.82340  eV     1   --> A              
     e( 57 - 57) =     30.02450  eV     1   --> A              
     e( 58 - 58) =     31.06009  eV     1   --> A              
     e( 59 - 59) =     31.40391  eV     1   --> A              
     e( 60 - 60) =     32.74923  eV     1   --> A              
     e( 61 - 61) =     33.78634  eV     1   --> A              
     e( 62 - 62) =     34.24965  eV     1   --> A              
     e( 63 - 63) =     35.02977  eV     1   --> A              
     e( 64 - 64) =     35.79427  eV     1   --> A              
     e( 65 - 65) =     35.82231  eV     1   --> A              
     e( 66 - 66) =     35.87489  eV     1   --> A              
     e( 67 - 67) =     36.02930  eV     1   --> A              
     e( 68 - 68) =     36.55779  eV     1   --> A              
     e( 69 - 69) =     37.08950  eV     1   --> A              
     e( 70 - 70) =     38.06776  eV     1   --> A              

 **************************************************************************

 **************************************************************************

                    xk=(   0.17326,   0.09976,   0.00000  )

     Band symmetry, C_1 (1)     point group:

     e(  1 -  1) =    -13.24731  eV     1   --> A              
     e(  2 -  2) =    -13.18864  eV     1   --> A              
     e(  3 -  3) =    -11.64009  eV     1   --> A              
     e(  4 -  4) =    -11.55313  eV     1   --> A              
     e(  5 -  5) =      0.29401  eV     1   --> A              
     e(  6 -  6) =      0.51677  eV     1   --> A              
     e(  7 -  7) =      1.01906  eV     1   --> A              
     e(  8 -  8) =      1.24063  eV     1   --> A              
     e(  9 -  9) =      1.53331  eV     1   --> A              
     e( 10 - 10) =      1.80208  eV     1   --> A              
     e( 11 - 11) =      2.20599  eV     1   --> A              
     e( 12 - 12) =      2.75362  eV     1   --> A              
     e( 13 - 13) =      2.82420  eV     1   --> A              
     e( 14 - 14) =      3.15724  eV     1   --> A              
     e( 15 - 15) =      3.18520  eV     1   --> A              
     e( 16 - 16) =      3.89042  eV     1   --> A              
     e( 17 - 17) =      5.99130  eV     1   --> A              
     e( 18 - 18) =      6.87227  eV     1   --> A              
     e( 19 - 19) =     10.01221  eV     1   --> A              
     e( 20 - 20) =     11.67760  eV     1   --> A              
     e( 21 - 21) =     12.09559  eV     1   --> A              
     e( 22 - 22) =     13.43539  eV     1   --> A              
     e( 23 - 23) =     14.14563  eV     1   --> A              
     e( 24 - 24) =     14.63112  eV     1   --> A              
     e( 25 - 25) =     15.20127  eV     1   --> A              
     e( 26 - 26) =     15.62566  eV     1   --> A              
     e( 27 - 27) =     16.13993  eV     1   --> A              
     e( 28 - 28) =     16.45948  eV     1   --> A              
     e( 29 - 29) =     17.41053  eV     1   --> A              
     e( 30 - 30) =     18.23570  eV     1   --> A              
     e( 31 - 31) =     18.26361  eV     1   --> A              
     e( 32 - 32) =     18.49927  eV     1   --> A              
     e( 33 - 33) =     18.66677  eV     1   --> A              
     e( 34 - 34) =     18.84816  eV     1   --> A              
     e( 35 - 35) =     19.58359  eV     1   --> A              
     e( 36 - 36) =     20.78623  eV     1   --> A              
     e( 37 - 37) =     21.11738  eV     1   --> A              
     e( 38 - 38) =     22.02638  eV     1   --> A              
     e( 39 - 39) =     23.05895  eV     1   --> A              
     e( 40 - 40) =     23.53711  eV     1   --> A              
     e( 41 - 41) =     23.98417  eV     1   --> A              
     e( 42 - 42) =     24.34282  eV     1   --> A              
     e( 43 - 43) =     24.44950  eV     1   --> A              
     e( 44 - 44) =     24.78242  eV     1   --> A              
     e( 45 - 45) =     25.01249  eV     1   --> A              
     e( 46 - 46) =     26.21080  eV     1   --> A              
     e( 47 - 47) =     26.35695  eV     1   --> A              
     e( 48 - 48) =     26.73783  eV     1   --> A              
     e( 49 - 49) =     27.11627  eV     1   --> A              
     e( 50 - 50) =     27.88893  eV     1   --> A              
     e( 51 - 51) =     27.95833  eV     1   --> A              
     e( 52 - 52) =     27.97391  eV     1   --> A              
     e( 53 - 53) =     28.97400  eV     1   --> A              
     e( 54 - 54) =     29.19177  eV     1   --> A              
     e( 55 - 55) =     29.28812  eV     1   --> A              
     e( 56 - 56) =     30.08791  eV     1   --> A              
     e( 57 - 57) =     30.13924  eV     1   --> A              
     e( 58 - 58) =     30.81603  eV     1   --> A              
     e( 59 - 59) =     31.45333  eV     1   --> A              
     e( 60 - 60) =     32.70244  eV     1   --> A              
     e( 61 - 61) =     33.67558  eV     1   --> A              
     e( 62 - 62) =     34.20947  eV     1   --> A              
     e( 63 - 63) =     35.31331  eV     1   --> A              
     e( 64 - 64) =     35.66131  eV     1   --> A              
     e( 65 - 65) =     35.67109  eV     1   --> A              
     e( 66 - 66) =     35.84833  eV     1   --> A              
     e( 67 - 67) =     35.96665  eV     1   --> A              
     e( 68 - 68) =     36.48984  eV     1   --> A              
     e( 69 - 69) =     37.43016  eV     1   --> A              
     e( 70 - 70) =     38.17492  eV     1   --> A              

 **************************************************************************

 **************************************************************************

                    xk=(   0.19251,   0.11085,   0.00000  )

     Band symmetry, C_1 (1)     point group:

     e(  1 -  1) =    -13.19907  eV     1   --> A              
     e(  2 -  2) =    -13.14132  eV     1   --> A              
     e(  3 -  3) =    -11.63637  eV     1   --> A              
     e(  4 -  4) =    -11.55221  eV     1   --> A              
     e(  5 -  5) =      0.17753  eV     1   --> A              
     e(  6 -  6) =      0.57782  eV     1   --> A              
     e(  7 -  7) =      0.87444  eV     1   --> A              
     e(  8 -  8) =      1.15769  eV     1   --> A              
     e(  9 -  9) =      1.37715  eV     1   --> A              
     e( 10 - 10) =      1.74238  eV     1   --> A              
     e( 11 - 11) =      2.13724  eV     1   --> A              
     e( 12 - 12) =      2.80763  eV     1   --> A              
     e( 13 - 13) =      2.81680  eV     1   --> A              
     e( 14 - 14) =      3.13641  eV     1   --> A              
     e( 15 - 15) =      3.19735  eV     1   --> A              
     e( 16 - 16) =      3.95412  eV     1   --> A              
     e( 17 - 17) =      6.14748  eV     1   --> A              
     e( 18 - 18) =      6.84302  eV     1   --> A              
     e( 19 - 19) =     10.23732  eV     1   --> A              
     e( 20 - 20) =     11.76402  eV     1   --> A              
     e( 21 - 21) =     12.01068  eV     1   --> A              
     e( 22 - 22) =     13.35571  eV     1   --> A              
     e( 23 - 23) =     14.05218  eV     1   --> A              
     e( 24 - 24) =     14.54858  eV     1   --> A              
     e( 25 - 25) =     15.02652  eV     1   --> A              
     e( 26 - 26) =     15.62125  eV     1   --> A              
     e( 27 - 27) =     16.06126  eV     1   --> A              
     e( 28 - 28) =     16.32821  eV     1   --> A              
     e( 29 - 29) =     17.56990  eV     1   --> A              
     e( 30 - 30) =     17.95387  eV     1   --> A              
     e( 31 - 31) =     18.21863  eV     1   --> A              
     e( 32 - 32) =     18.54870  eV     1   --> A              
     e( 33 - 33) =     18.78515  eV     1   --> A              
     e( 34 - 34) =     18.80105  eV     1   --> A              
     e( 35 - 35) =     19.54922  eV     1   --> A              
     e( 36 - 36) =     20.70497  eV     1   --> A              
     e( 37 - 37) =     21.24859  eV     1   --> A              
     e( 38 - 38) =     22.25244  eV     1   --> A              
     e( 39 - 39) =     22.79946  eV     1   --> A              
     e( 40 - 40) =     23.43054  eV     1   --> A              
     e( 41 - 41) =     23.96818  eV     1   --> A              
     e( 42 - 42) =     24.42035  eV     1   --> A              
     e( 43 - 43) =     24.69088  eV     1   --> A              
     e( 44 - 44) =     25.07524  eV     1   --> A              
     e( 45 - 45) =     25.20689  eV     1   --> A              
     e( 46 - 46) =     26.10019  eV     1   --> A              
     e( 47 - 47) =     26.58767  eV     1   --> A              
     e( 48 - 48) =     26.94961  eV     1   --> A              
     e( 49 - 49) =     27.21130  eV     1   --> A              
     e( 50 - 50) =     27.96551  eV     1   --> A              
     e( 51 - 51) =     28.38412  eV     1   --> A              
     e( 52 - 52) =     28.40815  eV     1   --> A              
     e( 53 - 53) =     29.17127  eV     1   --> A              
     e( 54 - 54) =     29.22521  eV     1   --> A              
     e( 55 - 55) =     29.52923  eV     1   --> A              
     e( 56 - 56) =     30.20126  eV     1   --> A              
     e( 57 - 57) =     30.34232  eV     1   --> A              
     e( 58 - 58) =     30.59607  eV     1   --> A              
     e( 59 - 59) =     31.46537  eV     1   --> A              
     e( 60 - 60) =     32.66405  eV     1   --> A              
     e( 61 - 61) =     33.61875  eV     1   --> A              
     e( 62 - 62) =     34.18550  eV     1   --> A              
     e( 63 - 63) =     35.47012  eV     1   --> A              
     e( 64 - 64) =     35.52741  eV     1   --> A              
     e( 65 - 65) =     35.59924  eV     1   --> A              
     e( 66 - 66) =     35.79967  eV     1   --> A              
     e( 67 - 67) =     36.06312  eV     1   --> A              
     e( 68 - 68) =     36.42018  eV     1   --> A              
     e( 69 - 69) =     37.81421  eV     1   --> A              
     e( 70 - 70) =     38.26568  eV     1   --> A              

 **************************************************************************

 **************************************************************************

                    xk=(   0.21177,   0.12193,   0.00000  )

     Band symmetry, C_1 (1)     point group:

     e(  1 -  1) =    -13.14698  eV     1   --> A              
     e(  2 -  2) =    -13.09023  eV     1   --> A              
     e(  3 -  3) =    -11.63364  eV     1   --> A              
     e(  4 -  4) =    -11.55243  eV     1   --> A              
     e(  5 -  5) =      0.06697  eV     1   --> A              
     e(  6 -  6) =      0.63321  eV     1   --> A              
     e(  7 -  7) =      0.73714  eV     1   --> A              
     e(  8 -  8) =      1.05638  eV     1   --> A              
     e(  9 -  9) =      1.22304  eV     1   --> A              
     e( 10 - 10) =      1.68576  eV     1   --> A              
     e( 11 - 11) =      2.07794  eV     1   --> A              
     e( 12 - 12) =      2.80553  eV     1   --> A              
     e( 13 - 13) =      2.85862  eV     1   --> A              
     e( 14 - 14) =      3.11131  eV     1   --> A              
     e( 15 - 15) =      3.22238  eV     1   --> A              
     e( 16 - 16) =      4.00782  eV     1   --> A              
     e( 17 - 17) =      6.29964  eV     1   --> A              
     e( 18 - 18) =      6.81597  eV     1   --> A              
     e( 19 - 19) =     10.46819  eV     1   --> A              
     e( 20 - 20) =     11.85842  eV     1   --> A              
     e( 21 - 21) =     11.91051  eV     1   --> A              
     e( 22 - 22) =     13.14882  eV     1   --> A              
     e( 23 - 23) =     14.10142  eV     1   --> A              
     e( 24 - 24) =     14.46448  eV     1   --> A              
     e( 25 - 25) =     14.86382  eV     1   --> A              
     e( 26 - 26) =     15.59640  eV     1   --> A              
     e( 27 - 27) =     15.97245  eV     1   --> A              
     e( 28 - 28) =     16.19749  eV     1   --> A              
     e( 29 - 29) =     17.69337  eV     1   --> A              
     e( 30 - 30) =     17.73869  eV     1   --> A              
     e( 31 - 31) =     18.15777  eV     1   --> A              
     e( 32 - 32) =     18.59848  eV     1   --> A              
     e( 33 - 33) =     18.75332  eV     1   --> A              
     e( 34 - 34) =     18.94027  eV     1   --> A              
     e( 35 - 35) =     19.55949  eV     1   --> A              
     e( 36 - 36) =     20.62806  eV     1   --> A              
     e( 37 - 37) =     21.38690  eV     1   --> A              
     e( 38 - 38) =     22.45619  eV     1   --> A              
     e( 39 - 39) =     22.54155  eV     1   --> A              
     e( 40 - 40) =     23.34242  eV     1   --> A              
     e( 41 - 41) =     23.94930  eV     1   --> A              
     e( 42 - 42) =     24.46493  eV     1   --> A              
     e( 43 - 43) =     24.89059  eV     1   --> A              
     e( 44 - 44) =     25.39783  eV     1   --> A              
     e( 45 - 45) =     25.42350  eV     1   --> A              
     e( 46 - 46) =     25.98894  eV     1   --> A              
     e( 47 - 47) =     26.82625  eV     1   --> A              
     e( 48 - 48) =     27.22026  eV     1   --> A              
     e( 49 - 49) =     27.24800  eV     1   --> A              
     e( 50 - 50) =     28.04483  eV     1   --> A              
     e( 51 - 51) =     28.82196  eV     1   --> A              
     e( 52 - 52) =     28.83688  eV     1   --> A              
     e( 53 - 53) =     29.25258  eV     1   --> A              
     e( 54 - 54) =     29.44318  eV     1   --> A              
     e( 55 - 55) =     29.75299  eV     1   --> A              
     e( 56 - 56) =     30.18344  eV     1   --> A              
     e( 57 - 57) =     30.35313  eV     1   --> A              
     e( 58 - 58) =     30.63370  eV     1   --> A              
     e( 59 - 59) =     31.44185  eV     1   --> A              
     e( 60 - 60) =     32.62355  eV     1   --> A              
     e( 61 - 61) =     33.65531  eV     1   --> A              
     e( 62 - 62) =     34.18440  eV     1   --> A              
     e( 63 - 63) =     35.41692  eV     1   --> A              
     e( 64 - 64) =     35.47068  eV     1   --> A              
     e( 65 - 65) =     35.58673  eV     1   --> A              
     e( 66 - 66) =     35.74871  eV     1   --> A              
     e( 67 - 67) =     36.34716  eV     1   --> A              
     e( 68 - 68) =     36.35336  eV     1   --> A              
     e( 69 - 69) =     38.21544  eV     1   --> A              
     e( 70 - 70) =     38.33441  eV     1   --> A              

 **************************************************************************

 **************************************************************************

                    xk=(   0.23102,   0.13302,   0.00000  )

     Band symmetry, C_1 (1)     point group:

     e(  1 -  1) =    -13.09143  eV     1   --> A              
     e(  2 -  2) =    -13.03574  eV     1   --> A              
     e(  3 -  3) =    -11.63224  eV     1   --> A              
     e(  4 -  4) =    -11.55407  eV     1   --> A              
     e(  5 -  5) =     -0.03623  eV     1   --> A              
     e(  6 -  6) =      0.60857  eV     1   --> A              
     e(  7 -  7) =      0.66772  eV     1   --> A              
     e(  8 -  8) =      0.94123  eV     1   --> A              
     e(  9 -  9) =      1.08923  eV     1   --> A              
     e( 10 - 10) =      1.63047  eV     1   --> A              
     e( 11 - 11) =      2.02609  eV     1   --> A              
     e( 12 - 12) =      2.81706  eV     1   --> A              
     e( 13 - 13) =      2.87472  eV     1   --> A              
     e( 14 - 14) =      3.08162  eV     1   --> A              
     e( 15 - 15) =      3.26310  eV     1   --> A              
     e( 16 - 16) =      4.05177  eV     1   --> A              
     e( 17 - 17) =      6.44729  eV     1   --> A              
     e( 18 - 18) =      6.79285  eV     1   --> A              
     e( 19 - 19) =     10.70241  eV     1   --> A              
     e( 20 - 20) =     11.79746  eV     1   --> A              
     e( 21 - 21) =     11.96070  eV     1   --> A              
     e( 22 - 22) =     12.88989  eV     1   --> A              
     e( 23 - 23) =     14.21826  eV     1   --> A              
     e( 24 - 24) =     14.37379  eV     1   --> A              
     e( 25 - 25) =     14.71539  eV     1   --> A              
     e( 26 - 26) =     15.55060  eV     1   --> A              
     e( 27 - 27) =     15.87553  eV     1   --> A              
     e( 28 - 28) =     16.06967  eV     1   --> A              
     e( 29 - 29) =     17.46366  eV     1   --> A              
     e( 30 - 30) =     17.91068  eV     1   --> A              
     e( 31 - 31) =     18.08398  eV     1   --> A              
     e( 32 - 32) =     18.65005  eV     1   --> A              
     e( 33 - 33) =     18.74695  eV     1   --> A              
     e( 34 - 34) =     19.07839  eV     1   --> A              
     e( 35 - 35) =     19.60895  eV     1   --> A              
     e( 36 - 36) =     20.56572  eV     1   --> A              
     e( 37 - 37) =     21.53191  eV     1   --> A              
     e( 38 - 38) =     22.28897  eV     1   --> A              
     e( 39 - 39) =     22.64024  eV     1   --> A              
     e( 40 - 40) =     23.27347  eV     1   --> A              
     e( 41 - 41) =     23.93167  eV     1   --> A              
     e( 42 - 42) =     24.48875  eV     1   --> A              
     e( 43 - 43) =     25.05736  eV     1   --> A              
     e( 44 - 44) =     25.63228  eV     1   --> A              
     e( 45 - 45) =     25.73950  eV     1   --> A              
     e( 46 - 46) =     25.88195  eV     1   --> A              
     e( 47 - 47) =     27.08604  eV     1   --> A              
     e( 48 - 48) =     27.23591  eV     1   --> A              
     e( 49 - 49) =     27.51874  eV     1   --> A              
     e( 50 - 50) =     28.13714  eV     1   --> A              
     e( 51 - 51) =     29.24315  eV     1   --> A              
     e( 52 - 52) =     29.26870  eV     1   --> A              
     e( 53 - 53) =     29.28323  eV     1   --> A              
     e( 54 - 54) =     29.75930  eV     1   --> A              
     e( 55 - 55) =     29.96318  eV     1   --> A              
     e( 56 - 56) =     30.07698  eV     1   --> A              
     e( 57 - 57) =     30.16663  eV     1   --> A              
     e( 58 - 58) =     30.88586  eV     1   --> A              
     e( 59 - 59) =     31.38878  eV     1   --> A              
     e( 60 - 60) =     32.56227  eV     1   --> A              
     e( 61 - 61) =     33.81624  eV     1   --> A              
     e( 62 - 62) =     34.21309  eV     1   --> A              
     e( 63 - 63) =     35.34614  eV     1   --> A              
     e( 64 - 64) =     35.41717  eV     1   --> A              
     e( 65 - 65) =     35.63754  eV     1   --> A              
     e( 66 - 66) =     35.70529  eV     1   --> A              
     e( 67 - 67) =     36.27893  eV     1   --> A              
     e( 68 - 68) =     36.70492  eV     1   --> A              
     e( 69 - 69) =     38.32558  eV     1   --> A              
     e( 70 - 70) =     38.38011  eV     1   --> A              

 **************************************************************************

 **************************************************************************

                    xk=(   0.25027,   0.14410,   0.00000  )

     Band symmetry, C_1 (1)     point group:

     e(  1 -  1) =    -13.03282  eV     1   --> A              
     e(  2 -  2) =    -12.97821  eV     1   --> A              
     e(  3 -  3) =    -11.63251  eV     1   --> A              
     e(  4 -  4) =    -11.55744  eV     1   --> A              
     e(  5 -  5) =     -0.13080  eV     1   --> A              
     e(  6 -  6) =      0.48987  eV     1   --> A              
     e(  7 -  7) =      0.64860  eV     1   --> A              
     e(  8 -  8) =      0.81754  eV     1   --> A              
     e(  9 -  9) =      1.00869  eV     1   --> A              
     e( 10 - 10) =      1.57404  eV     1   --> A              
     e( 11 - 11) =      1.98238  eV     1   --> A              
     e( 12 - 12) =      2.84098  eV     1   --> A              
     e( 13 - 13) =      2.86689  eV     1   --> A              
     e( 14 - 14) =      3.04702  eV     1   --> A              
     e( 15 - 15) =      3.31623  eV     1   --> A              
     e( 16 - 16) =      4.08642  eV     1   --> A              
     e( 17 - 17) =      6.59007  eV     1   --> A              
     e( 18 - 18) =      6.77554  eV     1   --> A              
     e( 19 - 19) =     10.93777  eV     1   --> A              
     e( 20 - 20) =     11.67418  eV     1   --> A              
     e( 21 - 21) =     12.07078  eV     1   --> A              
     e( 22 - 22) =     12.61958  eV     1   --> A              
     e( 23 - 23) =     14.27272  eV     1   --> A              
     e( 24 - 24) =     14.36074  eV     1   --> A              
     e( 25 - 25) =     14.58307  eV     1   --> A              
     e( 26 - 26) =     15.48696  eV     1   --> A              
     e( 27 - 27) =     15.76998  eV     1   --> A              
     e( 28 - 28) =     15.94603  eV     1   --> A              
     e( 29 - 29) =     17.27418  eV     1   --> A              
     e( 30 - 30) =     17.99976  eV     1   --> A              
     e( 31 - 31) =     18.08010  eV     1   --> A              
     e( 32 - 32) =     18.70454  eV     1   --> A              
     e( 33 - 33) =     18.75650  eV     1   --> A              
     e( 34 - 34) =     19.20860  eV     1   --> A              
     e( 35 - 35) =     19.69118  eV     1   --> A              
     e( 36 - 36) =     20.52802  eV     1   --> A              
     e( 37 - 37) =     21.68309  eV     1   --> A              
     e( 38 - 38) =     22.04594  eV     1   --> A              
     e( 39 - 39) =     22.80880  eV     1   --> A              
     e( 40 - 40) =     23.22393  eV     1   --> A              
     e( 41 - 41) =     23.91462  eV     1   --> A              
     e( 42 - 42) =     24.50380  eV     1   --> A              
     e( 43 - 43) =     25.20391  eV     1   --> A              
     e( 44 - 44) =     25.78439  eV     1   --> A              
     e( 45 - 45) =     25.81318  eV     1   --> A              
     e( 46 - 46) =     26.08452  eV     1   --> A              
     e( 47 - 47) =     27.18878  eV     1   --> A              
     e( 48 - 48) =     27.37354  eV     1   --> A              
     e( 49 - 49) =     27.77904  eV     1   --> A              
     e( 50 - 50) =     28.28250  eV     1   --> A              
     e( 51 - 51) =     29.31972  eV     1   --> A              
     e( 52 - 52) =     29.61081  eV     1   --> A              
     e( 53 - 53) =     29.70093  eV     1   --> A              
     e( 54 - 54) =     29.91487  eV     1   --> A              
     e( 55 - 55) =     29.99324  eV     1   --> A              
     e( 56 - 56) =     30.03056  eV     1   --> A              
     e( 57 - 57) =     30.22996  eV     1   --> A              
     e( 58 - 58) =     31.14758  eV     1   --> A              
     e( 59 - 59) =     31.31660  eV     1   --> A              
     e( 60 - 60) =     32.47818  eV     1   --> A              
     e( 61 - 61) =     34.09516  eV     1   --> A              
     e( 62 - 62) =     34.27814  eV     1   --> A              
     e( 63 - 63) =     35.30799  eV     1   --> A              
     e( 64 - 64) =     35.36592  eV     1   --> A              
     e( 65 - 65) =     35.67510  eV     1   --> A              
     e( 66 - 66) =     35.75079  eV     1   --> A              
     e( 67 - 67) =     36.21180  eV     1   --> A              
     e( 68 - 68) =     37.06005  eV     1   --> A              
     e( 69 - 69) =     38.22309  eV     1   --> A              
     e( 70 - 70) =     38.40546  eV     1   --> A              

 **************************************************************************

 **************************************************************************

                    xk=(   0.26952,   0.15519,   0.00000  )

     Band symmetry, C_1 (1)     point group:

     e(  1 -  1) =    -12.97157  eV     1   --> A              
     e(  2 -  2) =    -12.91809  eV     1   --> A              
     e(  3 -  3) =    -11.63475  eV     1   --> A              
     e(  4 -  4) =    -11.56281  eV     1   --> A              
     e(  5 -  5) =     -0.21557  eV     1   --> A              
     e(  6 -  6) =      0.38200  eV     1   --> A              
     e(  7 -  7) =      0.55916  eV     1   --> A              
     e(  8 -  8) =      0.69019  eV     1   --> A              
     e(  9 -  9) =      0.99577  eV     1   --> A              
     e( 10 - 10) =      1.51442  eV     1   --> A              
     e( 11 - 11) =      1.95002  eV     1   --> A              
     e( 12 - 12) =      2.84030  eV     1   --> A              
     e( 13 - 13) =      2.87594  eV     1   --> A              
     e( 14 - 14) =      3.00730  eV     1   --> A              
     e( 15 - 15) =      3.37522  eV     1   --> A              
     e( 16 - 16) =      4.11240  eV     1   --> A              
     e( 17 - 17) =      6.72748  eV     1   --> A              
     e( 18 - 18) =      6.76617  eV     1   --> A              
     e( 19 - 19) =     11.17219  eV     1   --> A              
     e( 20 - 20) =     11.54324  eV     1   --> A              
     e( 21 - 21) =     12.18856  eV     1   --> A              
     e( 22 - 22) =     12.35225  eV     1   --> A              
     e( 23 - 23) =     14.16083  eV     1   --> A              
     e( 24 - 24) =     14.46845  eV     1   --> A              
     e( 25 - 25) =     14.50914  eV     1   --> A              
     e( 26 - 26) =     15.41346  eV     1   --> A              
     e( 27 - 27) =     15.65333  eV     1   --> A              
     e( 28 - 28) =     15.82736  eV     1   --> A              
     e( 29 - 29) =     17.13277  eV     1   --> A              
     e( 30 - 30) =     17.90779  eV     1   --> A              
     e( 31 - 31) =     18.24135  eV     1   --> A              
     e( 32 - 32) =     18.76223  eV     1   --> A              
     e( 33 - 33) =     18.77059  eV     1   --> A              
     e( 34 - 34) =     19.32255  eV     1   --> A              
     e( 35 - 35) =     19.79922  eV     1   --> A              
     e( 36 - 36) =     20.52359  eV     1   --> A              
     e( 37 - 37) =     21.81752  eV     1   --> A              
     e( 38 - 38) =     21.83978  eV     1   --> A              
     e( 39 - 39) =     22.96603  eV     1   --> A              
     e( 40 - 40) =     23.19355  eV     1   --> A              
     e( 41 - 41) =     23.89669  eV     1   --> A              
     e( 42 - 42) =     24.51941  eV     1   --> A              
     e( 43 - 43) =     25.33717  eV     1   --> A              
     e( 44 - 44) =     25.70163  eV     1   --> A              
     e( 45 - 45) =     25.95563  eV     1   --> A              
     e( 46 - 46) =     26.42520  eV     1   --> A              
     e( 47 - 47) =     27.11788  eV     1   --> A              
     e( 48 - 48) =     27.68128  eV     1   --> A              
     e( 49 - 49) =     27.91607  eV     1   --> A              
     e( 50 - 50) =     28.53472  eV     1   --> A              
     e( 51 - 51) =     29.37466  eV     1   --> A              
     e( 52 - 52) =     29.59530  eV     1   --> A              
     e( 53 - 53) =     29.83076  eV     1   --> A              
     e( 54 - 54) =     30.05596  eV     1   --> A              
     e( 55 - 55) =     30.12174  eV     1   --> A              
     e( 56 - 56) =     30.18068  eV     1   --> A              
     e( 57 - 57) =     30.61145  eV     1   --> A              
     e( 58 - 58) =     31.23978  eV     1   --> A              
     e( 59 - 59) =     31.41844  eV     1   --> A              
     e( 60 - 60) =     32.38628  eV     1   --> A              
     e( 61 - 61) =     34.38022  eV     1   --> A              
     e( 62 - 62) =     34.45946  eV     1   --> A              
     e( 63 - 63) =     35.29696  eV     1   --> A              
     e( 64 - 64) =     35.32765  eV     1   --> A              
     e( 65 - 65) =     35.66275  eV     1   --> A              
     e( 66 - 66) =     35.91889  eV     1   --> A              
     e( 67 - 67) =     36.15388  eV     1   --> A              
     e( 68 - 68) =     37.38823  eV     1   --> A              
     e( 69 - 69) =     38.08204  eV     1   --> A              
     e( 70 - 70) =     38.41503  eV     1   --> A              

 **************************************************************************

 **************************************************************************

                    xk=(   0.28877,   0.16627,   0.00000  )

     Band symmetry, C_1 (1)     point group:

     e(  1 -  1) =    -12.90815  eV     1   --> A              
     e(  2 -  2) =    -12.85582  eV     1   --> A              
     e(  3 -  3) =    -11.63927  eV     1   --> A              
     e(  4 -  4) =    -11.57044  eV     1   --> A              
     e(  5 -  5) =     -0.28969  eV     1   --> A              
     e(  6 -  6) =      0.28580  eV     1   --> A              
     e(  7 -  7) =      0.43418  eV     1   --> A              
     e(  8 -  8) =      0.56315  eV     1   --> A              
     e(  9 -  9) =      1.01107  eV     1   --> A              
     e( 10 - 10) =      1.45024  eV     1   --> A              
     e( 11 - 11) =      1.93426  eV     1   --> A              
     e( 12 - 12) =      2.79951  eV     1   --> A              
     e( 13 - 13) =      2.92047  eV     1   --> A              
     e( 14 - 14) =      2.96235  eV     1   --> A              
     e( 15 - 15) =      3.43402  eV     1   --> A              
     e( 16 - 16) =      4.13048  eV     1   --> A              
     e( 17 - 17) =      6.76546  eV     1   --> A              
     e( 18 - 18) =      6.86040  eV     1   --> A              
     e( 19 - 19) =     11.40332  eV     1   --> A              
     e( 20 - 20) =     11.40714  eV     1   --> A              
     e( 21 - 21) =     12.09388  eV     1   --> A              
     e( 22 - 22) =     12.31398  eV     1   --> A              
     e( 23 - 23) =     14.03945  eV     1   --> A              
     e( 24 - 24) =     14.37296  eV     1   --> A              
     e( 25 - 25) =     14.64413  eV     1   --> A              
     e( 26 - 26) =     15.34750  eV     1   --> A              
     e( 27 - 27) =     15.52408  eV     1   --> A              
     e( 28 - 28) =     15.71414  eV     1   --> A              
     e( 29 - 29) =     17.04296  eV     1   --> A              
     e( 30 - 30) =     17.81056  eV     1   --> A              
     e( 31 - 31) =     18.39014  eV     1   --> A              
     e( 32 - 32) =     18.77915  eV     1   --> A              
     e( 33 - 33) =     18.82180  eV     1   --> A              
     e( 34 - 34) =     19.41008  eV     1   --> A              
     e( 35 - 35) =     19.92585  eV     1   --> A              
     e( 36 - 36) =     20.55712  eV     1   --> A              
     e( 37 - 37) =     21.60998  eV     1   --> A              
     e( 38 - 38) =     22.00112  eV     1   --> A              
     e( 39 - 39) =     23.11515  eV     1   --> A              
     e( 40 - 40) =     23.18178  eV     1   --> A              
     e( 41 - 41) =     23.87722  eV     1   --> A              
     e( 42 - 42) =     24.54198  eV     1   --> A              
     e( 43 - 43) =     25.45895  eV     1   --> A              
     e( 44 - 44) =     25.63873  eV     1   --> A              
     e( 45 - 45) =     26.06454  eV     1   --> A              
     e( 46 - 46) =     26.75312  eV     1   --> A              
     e( 47 - 47) =     27.03229  eV     1   --> A              
     e( 48 - 48) =     27.94301  eV     1   --> A              
     e( 49 - 49) =     27.98614  eV     1   --> A              
     e( 50 - 50) =     28.83267  eV     1   --> A              
     e( 51 - 51) =     29.33394  eV     1   --> A              
     e( 52 - 52) =     29.47808  eV     1   --> A              
     e( 53 - 53) =     29.69493  eV     1   --> A              
     e( 54 - 54) =     30.27370  eV     1   --> A              
     e( 55 - 55) =     30.39747  eV     1   --> A              
     e( 56 - 56) =     30.50038  eV     1   --> A              
     e( 57 - 57) =     31.03057  eV     1   --> A              
     e( 58 - 58) =     31.17611  eV     1   --> A              
     e( 59 - 59) =     31.70331  eV     1   --> A              
     e( 60 - 60) =     32.30460  eV     1   --> A              
     e( 61 - 61) =     34.52376  eV     1   --> A              
     e( 62 - 62) =     34.85371  eV     1   --> A              
     e( 63 - 63) =     35.29746  eV     1   --> A              
     e( 64 - 64) =     35.30425  eV     1   --> A              
     e( 65 - 65) =     35.67339  eV     1   --> A              
     e( 66 - 66) =     36.11645  eV     1   --> A              
     e( 67 - 67) =     36.12660  eV     1   --> A              
     e( 68 - 68) =     37.67381  eV     1   --> A              
     e( 69 - 69) =     37.93065  eV     1   --> A              
     e( 70 - 70) =     38.41352  eV     1   --> A              

 **************************************************************************

 **************************************************************************

                    xk=(   0.30802,   0.17736,   0.00000  )

     Band symmetry, C_1 (1)     point group:

     e(  1 -  1) =    -12.84302  eV     1   --> A              
     e(  2 -  2) =    -12.79185  eV     1   --> A              
     e(  3 -  3) =    -11.64634  eV     1   --> A              
     e(  4 -  4) =    -11.58055  eV     1   --> A              
     e(  5 -  5) =     -0.35233  eV     1   --> A              
     e(  6 -  6) =      0.20193  eV     1   --> A              
     e(  7 -  7) =      0.30193  eV     1   --> A              
     e(  8 -  8) =      0.43971  eV     1   --> A              
     e(  9 -  9) =      1.02088  eV     1   --> A              
     e( 10 - 10) =      1.38084  eV     1   --> A              
     e( 11 - 11) =      1.94117  eV     1   --> A              
     e( 12 - 12) =      2.74760  eV     1   --> A              
     e( 13 - 13) =      2.91231  eV     1   --> A              
     e( 14 - 14) =      2.97316  eV     1   --> A              
     e( 15 - 15) =      3.48845  eV     1   --> A              
     e( 16 - 16) =      4.14140  eV     1   --> A              
[...]
     e( 61 - 61) =     33.95091  eV     1   --> A'             
     e( 62 - 62) =     34.40460  eV     1   --> A'             
     e( 63 - 63) =     34.47260  eV     1   --> A''            
     e( 64 - 64) =     34.98307  eV     1   --> A'             
     e( 65 - 65) =     36.53371  eV     1   --> A'             
     e( 66 - 66) =     36.60343  eV     1   --> A''            
     e( 67 - 67) =     36.74931  eV     1   --> A'             
     e( 68 - 68) =     36.76513  eV     1   --> A''            
     e( 69 - 69) =     36.88524  eV     1   --> A'             
     e( 70 - 70) =     37.68268  eV     1   --> A'             

 **************************************************************************

 **************************************************************************

                    xk=(   0.05775,   0.00000,   0.00000  )

     Band symmetry, C_s (m)     point group:

     e(  1 -  1) =    -13.44608  eV     1   --> A'             
     e(  2 -  2) =    -13.38355  eV     1   --> A'             
     e(  3 -  3) =    -11.66693  eV     1   --> A'             
     e(  4 -  4) =    -11.56774  eV     1   --> A'             
     e(  5 -  5) =      0.22776  eV     1   --> A'             
     e(  6 -  6) =      1.03803  eV     1   --> A'             
     e(  7 -  7) =      1.40763  eV     1   --> A'             
     e(  8 -  8) =      1.96629  eV     1   --> A'             
     e(  9 -  9) =      2.06872  eV     1   --> A''            
     e( 10 - 10) =      2.11190  eV     1   --> A''            
     e( 11 - 11) =      2.20342  eV     1   --> A'             
     e( 12 - 12) =      2.99747  eV     1   --> A'             
     e( 13 - 13) =      3.15440  eV     1   --> A'             
     e( 14 - 14) =      3.17247  eV     1   --> A''            
     e( 15 - 15) =      3.23047  eV     1   --> A''            
     e( 16 - 16) =      3.30609  eV     1   --> A'             
     e( 17 - 17) =      5.00935  eV     1   --> A'             
     e( 18 - 18) =      7.02612  eV     1   --> A'             
     e( 19 - 19) =      8.92034  eV     1   --> A'             
     e( 20 - 20) =     11.32672  eV     1   --> A'             
     e( 21 - 21) =     12.28797  eV     1   --> A'             
     e( 22 - 22) =     12.97655  eV     1   --> A'             
     e( 23 - 23) =     15.24199  eV     1   --> A'             
     e( 24 - 24) =     15.36220  eV     1   --> A''            
     e( 25 - 25) =     15.98854  eV     1   --> A'             
     e( 26 - 26) =     16.30159  eV     1   --> A''            
     e( 27 - 27) =     16.35296  eV     1   --> A'             
     e( 28 - 28) =     16.58571  eV     1   --> A''            
     e( 29 - 29) =     17.44297  eV     1   --> A'             
     e( 30 - 30) =     18.00595  eV     1   --> A''            
     e( 31 - 31) =     18.10865  eV     1   --> A'             
     e( 32 - 32) =     18.24987  eV     1   --> A'             
     e( 33 - 33) =     19.75829  eV     1   --> A'             
     e( 34 - 34) =     19.88464  eV     1   --> A''            
     e( 35 - 35) =     20.13795  eV     1   --> A'             
     e( 36 - 36) =     20.50404  eV     1   --> A'             
     e( 37 - 37) =     20.85301  eV     1   --> A'             
     e( 38 - 38) =     21.22666  eV     1   --> A''            
     e( 39 - 39) =     22.95000  eV     1   --> A'             
     e( 40 - 40) =     23.02985  eV     1   --> A''            
     e( 41 - 41) =     23.34713  eV     1   --> A'             
     e( 42 - 42) =     23.85815  eV     1   --> A'             
     e( 43 - 43) =     24.46025  eV     1   --> A'             
     e( 44 - 44) =     24.46206  eV     1   --> A''            
     e( 45 - 45) =     24.77517  eV     1   --> A'             
     e( 46 - 46) =     24.98376  eV     1   --> A''            
     e( 47 - 47) =     25.60896  eV     1   --> A'             
     e( 48 - 48) =     25.93267  eV     1   --> A'             
     e( 49 - 49) =     26.13624  eV     1   --> A'             
     e( 50 - 50) =     26.72054  eV     1   --> A'             
     e( 51 - 51) =     26.72498  eV     1   --> A''            
     e( 52 - 52) =     27.50601  eV     1   --> A'             
     e( 53 - 53) =     27.69551  eV     1   --> A''            
     e( 54 - 54) =     28.54163  eV     1   --> A'             
     e( 55 - 55) =     28.88365  eV     1   --> A'             
     e( 56 - 56) =     28.93639  eV     1   --> A''            
     e( 57 - 57) =     29.44904  eV     1   --> A'             
     e( 58 - 58) =     30.74417  eV     1   --> A'             
     e( 59 - 59) =     32.55550  eV     1   --> A'             
     e( 60 - 60) =     32.95685  eV     1   --> A''            
     e( 61 - 61) =     33.84064  eV     1   --> A'             
     e( 62 - 62) =     34.48243  eV     1   --> A'             
     e( 63 - 63) =     34.50823  eV     1   --> A''            
     e( 64 - 64) =     34.72951  eV     1   --> A'             
     e( 65 - 65) =     36.62769  eV     1   --> A'             
     e( 66 - 66) =     36.64645  eV     1   --> A''            
     e( 67 - 67) =     36.88140  eV     1   --> A''            
     e( 68 - 68) =     36.89655  eV     1   --> A'             
     e( 69 - 69) =     36.95956  eV     1   --> A'             
     e( 70 - 70) =     37.70509  eV     1   --> A'             

 **************************************************************************

 **************************************************************************

                    xk=(   0.03850,   0.00000,   0.00000  )

     Band symmetry, C_s (m)     point group:

     e(  1 -  1) =    -13.45657  eV     1   --> A'             
     e(  2 -  2) =    -13.39384  eV     1   --> A'             
     e(  3 -  3) =    -11.66884  eV     1   --> A'             
     e(  4 -  4) =    -11.56898  eV     1   --> A'             
     e(  5 -  5) =      0.21179  eV     1   --> A'             
     e(  6 -  6) =      1.10534  eV     1   --> A'             
     e(  7 -  7) =      1.40911  eV     1   --> A'             
     e(  8 -  8) =      2.05764  eV     1   --> A'             
     e(  9 -  9) =      2.08364  eV     1   --> A''            
     e( 10 - 10) =      2.12647  eV     1   --> A''            
     e( 11 - 11) =      2.14947  eV     1   --> A'             
     e( 12 - 12) =      3.09066  eV     1   --> A'             
     e( 13 - 13) =      3.17163  eV     1   --> A''            
     e( 14 - 14) =      3.19150  eV     1   --> A'             
     e( 15 - 15) =      3.22898  eV     1   --> A''            
     e( 16 - 16) =      3.23912  eV     1   --> A'             
     e( 17 - 17) =      4.91920  eV     1   --> A'             
     e( 18 - 18) =      7.03536  eV     1   --> A'             
     e( 19 - 19) =      8.85223  eV     1   --> A'             
     e( 20 - 20) =     11.30826  eV     1   --> A'             
     e( 21 - 21) =     12.28818  eV     1   --> A'             
     e( 22 - 22) =     12.94274  eV     1   --> A'             
     e( 23 - 23) =     15.30368  eV     1   --> A'             
     e( 24 - 24) =     15.34750  eV     1   --> A''            
     e( 25 - 25) =     16.15539  eV     1   --> A'             
     e( 26 - 26) =     16.29050  eV     1   --> A''            
     e( 27 - 27) =     16.45385  eV     1   --> A'             
     e( 28 - 28) =     16.54942  eV     1   --> A''            
     e( 29 - 29) =     17.53681  eV     1   --> A'             
     e( 30 - 30) =     17.97186  eV     1   --> A''            
     e( 31 - 31) =     18.04506  eV     1   --> A'             
     e( 32 - 32) =     18.21611  eV     1   --> A'             
     e( 33 - 33) =     19.85062  eV     1   --> A'             
     e( 34 - 34) =     19.95760  eV     1   --> A''            
     e( 35 - 35) =     20.01421  eV     1   --> A'             
     e( 36 - 36) =     20.48504  eV     1   --> A'             
     e( 37 - 37) =     21.05276  eV     1   --> A'             
     e( 38 - 38) =     21.22880  eV     1   --> A''            
     e( 39 - 39) =     22.87121  eV     1   --> A'             
     e( 40 - 40) =     22.89547  eV     1   --> A''            
     e( 41 - 41) =     23.26270  eV     1   --> A'             
     e( 42 - 42) =     23.67725  eV     1   --> A'             
     e( 43 - 43) =     24.55699  eV     1   --> A''            
     e( 44 - 44) =     24.56399  eV     1   --> A'             
     e( 45 - 45) =     24.83222  eV     1   --> A'             
     e( 46 - 46) =     24.91986  eV     1   --> A''            
     e( 47 - 47) =     25.44514  eV     1   --> A'             
     e( 48 - 48) =     25.83713  eV     1   --> A'             
     e( 49 - 49) =     26.04194  eV     1   --> A'             
     e( 50 - 50) =     26.75022  eV     1   --> A''            
     e( 51 - 51) =     26.76243  eV     1   --> A'             
     e( 52 - 52) =     27.48883  eV     1   --> A'             
     e( 53 - 53) =     27.56671  eV     1   --> A''            
     e( 54 - 54) =     28.41837  eV     1   --> A'             
     e( 55 - 55) =     28.90434  eV     1   --> A'             
     e( 56 - 56) =     28.90995  eV     1   --> A''            
     e( 57 - 57) =     29.41144  eV     1   --> A'             
     e( 58 - 58) =     30.65619  eV     1   --> A'             
     e( 59 - 59) =     32.77444  eV     1   --> A'             
     e( 60 - 60) =     32.97033  eV     1   --> A''            
     e( 61 - 61) =     33.76247  eV     1   --> A'             
     e( 62 - 62) =     34.49130  eV     1   --> A'             
     e( 63 - 63) =     34.53329  eV     1   --> A''            
     e( 64 - 64) =     34.54792  eV     1   --> A'             
     e( 65 - 65) =     36.67822  eV     1   --> A''            
     e( 66 - 66) =     36.69024  eV     1   --> A'             
     e( 67 - 67) =     36.99104  eV     1   --> A''            
     e( 68 - 68) =     37.00831  eV     1   --> A'             
     e( 69 - 69) =     37.02050  eV     1   --> A'             
     e( 70 - 70) =     37.77674  eV     1   --> A'             

 **************************************************************************

 **************************************************************************

                    xk=(   0.01925,   0.00000,   0.00000  )

     Band symmetry, C_s (m)     point group:

     e(  1 -  1) =    -13.46289  eV     1   --> A'             
     e(  2 -  2) =    -13.40003  eV     1   --> A'             
     e(  3 -  3) =    -11.67002  eV     1   --> A'             
     e(  4 -  4) =    -11.56974  eV     1   --> A'             
     e(  5 -  5) =      0.20215  eV     1   --> A'             
     e(  6 -  6) =      1.14987  eV     1   --> A'             
     e(  7 -  7) =      1.40969  eV     1   --> A'             
     e(  8 -  8) =      2.09276  eV     1   --> A''            
     e(  9 -  9) =      2.11146  eV     1   --> A'             
     e( 10 - 10) =      2.11998  eV     1   --> A'             
     e( 11 - 11) =      2.13541  eV     1   --> A''            
     e( 12 - 12) =      3.15276  eV     1   --> A'             
     e( 13 - 13) =      3.17108  eV     1   --> A''            
     e( 14 - 14) =      3.18241  eV     1   --> A'             
     e( 15 - 15) =      3.22475  eV     1   --> A'             
     e( 16 - 16) =      3.22803  eV     1   --> A''            
     e( 17 - 17) =      4.85957  eV     1   --> A'             
     e( 18 - 18) =      7.04094  eV     1   --> A'             
     e( 19 - 19) =      8.81051  eV     1   --> A'             
     e( 20 - 20) =     11.29714  eV     1   --> A'             
     e( 21 - 21) =     12.28772  eV     1   --> A'             
     e( 22 - 22) =     12.92219  eV     1   --> A'             
     e( 23 - 23) =     15.33851  eV     1   --> A''            
     e( 24 - 24) =     15.34274  eV     1   --> A'             
     e( 25 - 25) =     16.26426  eV     1   --> A'             
     e( 26 - 26) =     16.28346  eV     1   --> A''            
     e( 27 - 27) =     16.51883  eV     1   --> A'             
     e( 28 - 28) =     16.52758  eV     1   --> A''            
     e( 29 - 29) =     17.60977  eV     1   --> A'             
     e( 30 - 30) =     17.95128  eV     1   --> A''            
     e( 31 - 31) =     17.99068  eV     1   --> A'             
     e( 32 - 32) =     18.19209  eV     1   --> A'             
     e( 33 - 33) =     19.80957  eV     1   --> A'             
     e( 34 - 34) =     20.00632  eV     1   --> A''            
     e( 35 - 35) =     20.02432  eV     1   --> A'             
     e( 36 - 36) =     20.47845  eV     1   --> A'             
     e( 37 - 37) =     21.19655  eV     1   --> A'             
     e( 38 - 38) =     21.23000  eV     1   --> A''            
     e( 39 - 39) =     22.81103  eV     1   --> A''            
     e( 40 - 40) =     22.82385  eV     1   --> A'             
     e( 41 - 41) =     23.21059  eV     1   --> A'             
     e( 42 - 42) =     23.53789  eV     1   --> A'             
     e( 43 - 43) =     24.61842  eV     1   --> A''            
     e( 44 - 44) =     24.63124  eV     1   --> A'             
     e( 45 - 45) =     24.87767  eV     1   --> A'             
     e( 46 - 46) =     24.88073  eV     1   --> A''            
     e( 47 - 47) =     25.34167  eV     1   --> A'             
     e( 48 - 48) =     25.77629  eV     1   --> A'             
     e( 49 - 49) =     25.98608  eV     1   --> A'             
     e( 50 - 50) =     26.76593  eV     1   --> A''            
     e( 51 - 51) =     26.78743  eV     1   --> A'             
     e( 52 - 52) =     27.48078  eV     1   --> A'             
     e( 53 - 53) =     27.48487  eV     1   --> A''            
     e( 54 - 54) =     28.34012  eV     1   --> A'             
     e( 55 - 55) =     28.89353  eV     1   --> A''            
     e( 56 - 56) =     28.91693  eV     1   --> A'             
     e( 57 - 57) =     29.38931  eV     1   --> A'             
     e( 58 - 58) =     30.59922  eV     1   --> A'             
     e( 59 - 59) =     32.94239  eV     1   --> A'             
     e( 60 - 60) =     32.97858  eV     1   --> A''            
     e( 61 - 61) =     33.71589  eV     1   --> A'             
     e( 62 - 62) =     34.31872  eV     1   --> A'             
     e( 63 - 63) =     34.54818  eV     1   --> A''            
     e( 64 - 64) =     34.58081  eV     1   --> A'             
     e( 65 - 65) =     36.69780  eV     1   --> A''            
     e( 66 - 66) =     36.72566  eV     1   --> A'             
     e( 67 - 67) =     37.03190  eV     1   --> A'             
     e( 68 - 68) =     37.07619  eV     1   --> A''            
     e( 69 - 69) =     37.10421  eV     1   --> A'             
     e( 70 - 70) =     37.87324  eV     1   --> A'             

 **************************************************************************

 **************************************************************************

                    xk=(   0.00000,   0.00000,   0.00000  )

     Band symmetry, C_s (m)     point group:

     e(  1 -  1) =    -13.46499  eV     1   --> A'             
     e(  2 -  2) =    -13.40209  eV     1   --> A'             
     e(  3 -  3) =    -11.67041  eV     1   --> A'             
     e(  4 -  4) =    -11.57000  eV     1   --> A'             
     e(  5 -  5) =      0.19893  eV     1   --> A'             
     e(  6 -  6) =      1.16559  eV     1   --> A'             
     e(  7 -  7) =      1.40986  eV     1   --> A'             
     e(  8 -  8) =      2.09586  eV     1   --> A''            
     e(  9 -  9) =      2.09888  eV     1   --> A'             
     e( 10 - 10) =      2.13840  eV     1   --> A''            
     e( 11 - 11) =      2.14126  eV     1   --> A'             
     e( 12 - 12) =      3.16660  eV     1   --> A'             
     e( 13 - 13) =      3.17092  eV     1   --> A''            
     e( 14 - 14) =      3.17477  eV     1   --> A'             
     e( 15 - 15) =      3.22770  eV     1   --> A''            
     e( 16 - 16) =      3.23152  eV     1   --> A'             
     e( 17 - 17) =      4.83857  eV     1   --> A'             
     e( 18 - 18) =      7.04282  eV     1   --> A'             
     e( 19 - 19) =      8.79645  eV     1   --> A'             
     e( 20 - 20) =     11.29343  eV     1   --> A'             
     e( 21 - 21) =     12.28746  eV     1   --> A'             
     e( 22 - 22) =     12.91530  eV     1   --> A'             
     e( 23 - 23) =     15.33549  eV     1   --> A''            
     e( 24 - 24) =     15.35611  eV     1   --> A'             
     e( 25 - 25) =     16.28105  eV     1   --> A''            
     e( 26 - 26) =     16.30229  eV     1   --> A'             
     e( 27 - 27) =     16.52029  eV     1   --> A''            
     e( 28 - 28) =     16.54135  eV     1   --> A'             
     e( 29 - 29) =     17.63985  eV     1   --> A'             
     e( 30 - 30) =     17.94441  eV     1   --> A''            
     e( 31 - 31) =     17.96687  eV     1   --> A'             
     e( 32 - 32) =     18.18335  eV     1   --> A'             
     e( 33 - 33) =     19.77822  eV     1   --> A'             
     e( 34 - 34) =     20.02351  eV     1   --> A''            
     e( 35 - 35) =     20.04272  eV     1   --> A'             
     e( 36 - 36) =     20.47786  eV     1   --> A'             
     e( 37 - 37) =     21.23034  eV     1   --> A''            
     e( 38 - 38) =     21.24946  eV     1   --> A'             
     e( 39 - 39) =     22.78217  eV     1   --> A''            
     e( 40 - 40) =     22.80835  eV     1   --> A'             
     e( 41 - 41) =     23.19298  eV     1   --> A'             
     e( 42 - 42) =     23.48491  eV     1   --> A'             
     e( 43 - 43) =     24.63975  eV     1   --> A''            
     e( 44 - 44) =     24.65470  eV     1   --> A'             
     e( 45 - 45) =     24.86756  eV     1   --> A''            
     e( 46 - 46) =     24.89445  eV     1   --> A'             
     e( 47 - 47) =     25.30634  eV     1   --> A'             
     e( 48 - 48) =     25.75527  eV     1   --> A'             
     e( 49 - 49) =     25.96754  eV     1   --> A'             
     e( 50 - 50) =     26.77125  eV     1   --> A''            
     e( 51 - 51) =     26.79562  eV     1   --> A'             
     e( 52 - 52) =     27.45673  eV     1   --> A''            
     e( 53 - 53) =     27.47861  eV     1   --> A'             
     e( 54 - 54) =     28.31324  eV     1   --> A'             
     e( 55 - 55) =     28.88795  eV     1   --> A''            
     e( 56 - 56) =     28.92114  eV     1   --> A'             
     e( 57 - 57) =     29.38201  eV     1   --> A'             
     e( 58 - 58) =     30.57948  eV     1   --> A'             
     e( 59 - 59) =     32.98138  eV     1   --> A''            
     e( 60 - 60) =     33.00927  eV     1   --> A'             
     e( 61 - 61) =     33.70043  eV     1   --> A'             
     e( 62 - 62) =     34.24908  eV     1   --> A'             
     e( 63 - 63) =     34.55313  eV     1   --> A''            
     e( 64 - 64) =     34.59316  eV     1   --> A'             
     e( 65 - 65) =     36.70442  eV     1   --> A''            
     e( 66 - 66) =     36.73712  eV     1   --> A'             
     e( 67 - 67) =     37.03843  eV     1   --> A'             
     e( 68 - 68) =     37.10989  eV     1   --> A''            
     e( 69 - 69) =     37.13409  eV     1   --> A'             
     e( 70 - 70) =     37.90445  eV     1   --> A''            

 **************************************************************************
 
     BANDS        :      4.68s CPU      8.25s WALL

 
   This run was terminated on:  10:40: 9  19Jun2023            

=------------------------------------------------------------------------------=
   JOB DONE.
=------------------------------------------------------------------------------=
